V -t * -v 1.0a5 -a 0
A -t * -n 1 -p 0 -o 0xffffffff -c 31 -a 1
A -t * -h 1 -m 2147483647 -s 0
n -t * -a 4 -s 4 -S UP -v circle -c black -i black
n -t * -a 0 -s 0 -S UP -v circle -c black -i black
n -t * -a 5 -s 5 -S UP -v circle -c black -i black
n -t * -a 1 -s 1 -S UP -v circle -c black -i black
n -t * -a 6 -s 6 -S UP -v circle -c black -i black
n -t * -a 2 -s 2 -S UP -v circle -c black -i black
n -t * -a 3 -s 3 -S UP -v circle -c black -i black
l -t * -s 0 -d 1 -S UP -r 1500000 -D 0.01 -c black
l -t * -s 1 -d 2 -S UP -r 1500000 -D 0.01 -c black
l -t * -s 2 -d 3 -S UP -r 1500000 -D 0.01 -c black
l -t * -s 3 -d 4 -S UP -r 1500000 -D 0.01 -c black
l -t * -s 4 -d 5 -S UP -r 1500000 -D 0.01 -c black
l -t * -s 5 -d 6 -S UP -r 1500000 -D 0.01 -c black
l -t * -s 6 -d 0 -S UP -r 1500000 -D 0.01 -c black
+ -t 0 -s 0 -d 1 -p cbr -e 500 -c 0 -i 0 -a 0 -x {0.0 3.0 0 ------- null}
- -t 0 -s 0 -d 1 -p cbr -e 500 -c 0 -i 0 -a 0 -x {0.0 3.0 0 ------- null}
h -t 0 -s 0 -d 1 -p cbr -e 500 -c 0 -i 0 -a 0 -x {0.0 3.0 -1 ------- null}
+ -t 0.005 -s 0 -d 1 -p cbr -e 500 -c 0 -i 1 -a 0 -x {0.0 3.0 1 ------- null}
- -t 0.005 -s 0 -d 1 -p cbr -e 500 -c 0 -i 1 -a 0 -x {0.0 3.0 1 ------- null}
h -t 0.005 -s 0 -d 1 -p cbr -e 500 -c 0 -i 1 -a 0 -x {0.0 3.0 -1 ------- null}
+ -t 0.01 -s 0 -d 1 -p cbr -e 500 -c 0 -i 2 -a 0 -x {0.0 3.0 2 ------- null}
- -t 0.01 -s 0 -d 1 -p cbr -e 500 -c 0 -i 2 -a 0 -x {0.0 3.0 2 ------- null}
h -t 0.01 -s 0 -d 1 -p cbr -e 500 -c 0 -i 2 -a 0 -x {0.0 3.0 -1 ------- null}
r -t 0.0126666666666667 -s 0 -d 1 -p cbr -e 500 -c 0 -i 0 -a 0 -x {0.0 3.0 0 ------- null}
+ -t 0.0126666666666667 -s 1 -d 2 -p cbr -e 500 -c 0 -i 0 -a 0 -x {0.0 3.0 0 ------- null}
- -t 0.0126666666666667 -s 1 -d 2 -p cbr -e 500 -c 0 -i 0 -a 0 -x {0.0 3.0 0 ------- null}
h -t 0.0126666666666667 -s 1 -d 2 -p cbr -e 500 -c 0 -i 0 -a 0 -x {0.0 3.0 -1 ------- null}
+ -t 0.015 -s 0 -d 1 -p cbr -e 500 -c 0 -i 3 -a 0 -x {0.0 3.0 3 ------- null}
- -t 0.015 -s 0 -d 1 -p cbr -e 500 -c 0 -i 3 -a 0 -x {0.0 3.0 3 ------- null}
h -t 0.015 -s 0 -d 1 -p cbr -e 500 -c 0 -i 3 -a 0 -x {0.0 3.0 -1 ------- null}
r -t 0.0176666666666667 -s 0 -d 1 -p cbr -e 500 -c 0 -i 1 -a 0 -x {0.0 3.0 1 ------- null}
+ -t 0.0176666666666667 -s 1 -d 2 -p cbr -e 500 -c 0 -i 1 -a 0 -x {0.0 3.0 1 ------- null}
- -t 0.0176666666666667 -s 1 -d 2 -p cbr -e 500 -c 0 -i 1 -a 0 -x {0.0 3.0 1 ------- null}
h -t 0.0176666666666667 -s 1 -d 2 -p cbr -e 500 -c 0 -i 1 -a 0 -x {0.0 3.0 -1 ------- null}
+ -t 0.02 -s 0 -d 1 -p cbr -e 500 -c 0 -i 4 -a 0 -x {0.0 3.0 4 ------- null}
- -t 0.02 -s 0 -d 1 -p cbr -e 500 -c 0 -i 4 -a 0 -x {0.0 3.0 4 ------- null}
h -t 0.02 -s 0 -d 1 -p cbr -e 500 -c 0 -i 4 -a 0 -x {0.0 3.0 -1 ------- null}
r -t 0.0226666666666667 -s 0 -d 1 -p cbr -e 500 -c 0 -i 2 -a 0 -x {0.0 3.0 2 ------- null}
+ -t 0.0226666666666667 -s 1 -d 2 -p cbr -e 500 -c 0 -i 2 -a 0 -x {0.0 3.0 2 ------- null}
- -t 0.0226666666666667 -s 1 -d 2 -p cbr -e 500 -c 0 -i 2 -a 0 -x {0.0 3.0 2 ------- null}
h -t 0.0226666666666667 -s 1 -d 2 -p cbr -e 500 -c 0 -i 2 -a 0 -x {0.0 3.0 -1 ------- null}
+ -t 0.025 -s 0 -d 1 -p cbr -e 500 -c 0 -i 5 -a 0 -x {0.0 3.0 5 ------- null}
- -t 0.025 -s 0 -d 1 -p cbr -e 500 -c 0 -i 5 -a 0 -x {0.0 3.0 5 ------- null}
h -t 0.025 -s 0 -d 1 -p cbr -e 500 -c 0 -i 5 -a 0 -x {0.0 3.0 -1 ------- null}
r -t 0.0253333333333333 -s 1 -d 2 -p cbr -e 500 -c 0 -i 0 -a 0 -x {0.0 3.0 0 ------- null}
+ -t 0.0253333333333333 -s 2 -d 3 -p cbr -e 500 -c 0 -i 0 -a 0 -x {0.0 3.0 0 ------- null}
- -t 0.0253333333333333 -s 2 -d 3 -p cbr -e 500 -c 0 -i 0 -a 0 -x {0.0 3.0 0 ------- null}
h -t 0.0253333333333333 -s 2 -d 3 -p cbr -e 500 -c 0 -i 0 -a 0 -x {0.0 3.0 -1 ------- null}
r -t 0.0276666666666667 -s 0 -d 1 -p cbr -e 500 -c 0 -i 3 -a 0 -x {0.0 3.0 3 ------- null}
+ -t 0.0276666666666667 -s 1 -d 2 -p cbr -e 500 -c 0 -i 3 -a 0 -x {0.0 3.0 3 ------- null}
- -t 0.0276666666666667 -s 1 -d 2 -p cbr -e 500 -c 0 -i 3 -a 0 -x {0.0 3.0 3 ------- null}
h -t 0.0276666666666667 -s 1 -d 2 -p cbr -e 500 -c 0 -i 3 -a 0 -x {0.0 3.0 -1 ------- null}
+ -t 0.03 -s 0 -d 1 -p cbr -e 500 -c 0 -i 6 -a 0 -x {0.0 3.0 6 ------- null}
- -t 0.03 -s 0 -d 1 -p cbr -e 500 -c 0 -i 6 -a 0 -x {0.0 3.0 6 ------- null}
h -t 0.03 -s 0 -d 1 -p cbr -e 500 -c 0 -i 6 -a 0 -x {0.0 3.0 -1 ------- null}
r -t 0.0303333333333333 -s 1 -d 2 -p cbr -e 500 -c 0 -i 1 -a 0 -x {0.0 3.0 1 ------- null}
+ -t 0.0303333333333333 -s 2 -d 3 -p cbr -e 500 -c 0 -i 1 -a 0 -x {0.0 3.0 1 ------- null}
- -t 0.0303333333333333 -s 2 -d 3 -p cbr -e 500 -c 0 -i 1 -a 0 -x {0.0 3.0 1 ------- null}
h -t 0.0303333333333333 -s 2 -d 3 -p cbr -e 500 -c 0 -i 1 -a 0 -x {0.0 3.0 -1 ------- null}
r -t 0.0326666666666667 -s 0 -d 1 -p cbr -e 500 -c 0 -i 4 -a 0 -x {0.0 3.0 4 ------- null}
+ -t 0.0326666666666667 -s 1 -d 2 -p cbr -e 500 -c 0 -i 4 -a 0 -x {0.0 3.0 4 ------- null}
- -t 0.0326666666666667 -s 1 -d 2 -p cbr -e 500 -c 0 -i 4 -a 0 -x {0.0 3.0 4 ------- null}
h -t 0.0326666666666667 -s 1 -d 2 -p cbr -e 500 -c 0 -i 4 -a 0 -x {0.0 3.0 -1 ------- null}
+ -t 0.035 -s 0 -d 1 -p cbr -e 500 -c 0 -i 7 -a 0 -x {0.0 3.0 7 ------- null}
- -t 0.035 -s 0 -d 1 -p cbr -e 500 -c 0 -i 7 -a 0 -x {0.0 3.0 7 ------- null}
h -t 0.035 -s 0 -d 1 -p cbr -e 500 -c 0 -i 7 -a 0 -x {0.0 3.0 -1 ------- null}
r -t 0.0353333333333333 -s 1 -d 2 -p cbr -e 500 -c 0 -i 2 -a 0 -x {0.0 3.0 2 ------- null}
+ -t 0.0353333333333333 -s 2 -d 3 -p cbr -e 500 -c 0 -i 2 -a 0 -x {0.0 3.0 2 ------- null}
- -t 0.0353333333333333 -s 2 -d 3 -p cbr -e 500 -c 0 -i 2 -a 0 -x {0.0 3.0 2 ------- null}
h -t 0.0353333333333333 -s 2 -d 3 -p cbr -e 500 -c 0 -i 2 -a 0 -x {0.0 3.0 -1 ------- null}
r -t 0.0376666666666667 -s 0 -d 1 -p cbr -e 500 -c 0 -i 5 -a 0 -x {0.0 3.0 5 ------- null}
+ -t 0.0376666666666667 -s 1 -d 2 -p cbr -e 500 -c 0 -i 5 -a 0 -x {0.0 3.0 5 ------- null}
- -t 0.0376666666666667 -s 1 -d 2 -p cbr -e 500 -c 0 -i 5 -a 0 -x {0.0 3.0 5 ------- null}
h -t 0.0376666666666667 -s 1 -d 2 -p cbr -e 500 -c 0 -i 5 -a 0 -x {0.0 3.0 -1 ------- null}
r -t 0.038 -s 2 -d 3 -p cbr -e 500 -c 0 -i 0 -a 0 -x {0.0 3.0 0 ------- null}
+ -t 0.04 -s 0 -d 1 -p cbr -e 500 -c 0 -i 8 -a 0 -x {0.0 3.0 8 ------- null}
- -t 0.04 -s 0 -d 1 -p cbr -e 500 -c 0 -i 8 -a 0 -x {0.0 3.0 8 ------- null}
h -t 0.04 -s 0 -d 1 -p cbr -e 500 -c 0 -i 8 -a 0 -x {0.0 3.0 -1 ------- null}
r -t 0.0403333333333333 -s 1 -d 2 -p cbr -e 500 -c 0 -i 3 -a 0 -x {0.0 3.0 3 ------- null}
+ -t 0.0403333333333333 -s 2 -d 3 -p cbr -e 500 -c 0 -i 3 -a 0 -x {0.0 3.0 3 ------- null}
- -t 0.0403333333333333 -s 2 -d 3 -p cbr -e 500 -c 0 -i 3 -a 0 -x {0.0 3.0 3 ------- null}
h -t 0.0403333333333333 -s 2 -d 3 -p cbr -e 500 -c 0 -i 3 -a 0 -x {0.0 3.0 -1 ------- null}
r -t 0.0426666666666667 -s 0 -d 1 -p cbr -e 500 -c 0 -i 6 -a 0 -x {0.0 3.0 6 ------- null}
+ -t 0.0426666666666667 -s 1 -d 2 -p cbr -e 500 -c 0 -i 6 -a 0 -x {0.0 3.0 6 ------- null}
- -t 0.0426666666666667 -s 1 -d 2 -p cbr -e 500 -c 0 -i 6 -a 0 -x {0.0 3.0 6 ------- null}
h -t 0.0426666666666667 -s 1 -d 2 -p cbr -e 500 -c 0 -i 6 -a 0 -x {0.0 3.0 -1 ------- null}
r -t 0.043 -s 2 -d 3 -p cbr -e 500 -c 0 -i 1 -a 0 -x {0.0 3.0 1 ------- null}
+ -t 0.045 -s 0 -d 1 -p cbr -e 500 -c 0 -i 9 -a 0 -x {0.0 3.0 9 ------- null}
- -t 0.045 -s 0 -d 1 -p cbr -e 500 -c 0 -i 9 -a 0 -x {0.0 3.0 9 ------- null}
h -t 0.045 -s 0 -d 1 -p cbr -e 500 -c 0 -i 9 -a 0 -x {0.0 3.0 -1 ------- null}
r -t 0.0453333333333333 -s 1 -d 2 -p cbr -e 500 -c 0 -i 4 -a 0 -x {0.0 3.0 4 ------- null}
+ -t 0.0453333333333333 -s 2 -d 3 -p cbr -e 500 -c 0 -i 4 -a 0 -x {0.0 3.0 4 ------- null}
- -t 0.0453333333333333 -s 2 -d 3 -p cbr -e 500 -c 0 -i 4 -a 0 -x {0.0 3.0 4 ------- null}
h -t 0.0453333333333333 -s 2 -d 3 -p cbr -e 500 -c 0 -i 4 -a 0 -x {0.0 3.0 -1 ------- null}
r -t 0.0476666666666667 -s 0 -d 1 -p cbr -e 500 -c 0 -i 7 -a 0 -x {0.0 3.0 7 ------- null}
+ -t 0.0476666666666667 -s 1 -d 2 -p cbr -e 500 -c 0 -i 7 -a 0 -x {0.0 3.0 7 ------- null}
- -t 0.0476666666666667 -s 1 -d 2 -p cbr -e 500 -c 0 -i 7 -a 0 -x {0.0 3.0 7 ------- null}
h -t 0.0476666666666667 -s 1 -d 2 -p cbr -e 500 -c 0 -i 7 -a 0 -x {0.0 3.0 -1 ------- null}
r -t 0.048 -s 2 -d 3 -p cbr -e 500 -c 0 -i 2 -a 0 -x {0.0 3.0 2 ------- null}
+ -t 0.05 -s 0 -d 1 -p cbr -e 500 -c 0 -i 10 -a 0 -x {0.0 3.0 10 ------- null}
- -t 0.05 -s 0 -d 1 -p cbr -e 500 -c 0 -i 10 -a 0 -x {0.0 3.0 10 ------- null}
h -t 0.05 -s 0 -d 1 -p cbr -e 500 -c 0 -i 10 -a 0 -x {0.0 3.0 -1 ------- null}
r -t 0.0503333333333333 -s 1 -d 2 -p cbr -e 500 -c 0 -i 5 -a 0 -x {0.0 3.0 5 ------- null}
+ -t 0.0503333333333333 -s 2 -d 3 -p cbr -e 500 -c 0 -i 5 -a 0 -x {0.0 3.0 5 ------- null}
- -t 0.0503333333333333 -s 2 -d 3 -p cbr -e 500 -c 0 -i 5 -a 0 -x {0.0 3.0 5 ------- null}
h -t 0.0503333333333333 -s 2 -d 3 -p cbr -e 500 -c 0 -i 5 -a 0 -x {0.0 3.0 -1 ------- null}
r -t 0.0526666666666667 -s 0 -d 1 -p cbr -e 500 -c 0 -i 8 -a 0 -x {0.0 3.0 8 ------- null}
+ -t 0.0526666666666667 -s 1 -d 2 -p cbr -e 500 -c 0 -i 8 -a 0 -x {0.0 3.0 8 ------- null}
- -t 0.0526666666666667 -s 1 -d 2 -p cbr -e 500 -c 0 -i 8 -a 0 -x {0.0 3.0 8 ------- null}
h -t 0.0526666666666667 -s 1 -d 2 -p cbr -e 500 -c 0 -i 8 -a 0 -x {0.0 3.0 -1 ------- null}
r -t 0.053 -s 2 -d 3 -p cbr -e 500 -c 0 -i 3 -a 0 -x {0.0 3.0 3 ------- null}
+ -t 0.055 -s 0 -d 1 -p cbr -e 500 -c 0 -i 11 -a 0 -x {0.0 3.0 11 ------- null}
- -t 0.055 -s 0 -d 1 -p cbr -e 500 -c 0 -i 11 -a 0 -x {0.0 3.0 11 ------- null}
h -t 0.055 -s 0 -d 1 -p cbr -e 500 -c 0 -i 11 -a 0 -x {0.0 3.0 -1 ------- null}
r -t 0.0553333333333333 -s 1 -d 2 -p cbr -e 500 -c 0 -i 6 -a 0 -x {0.0 3.0 6 ------- null}
+ -t 0.0553333333333333 -s 2 -d 3 -p cbr -e 500 -c 0 -i 6 -a 0 -x {0.0 3.0 6 ------- null}
- -t 0.0553333333333333 -s 2 -d 3 -p cbr -e 500 -c 0 -i 6 -a 0 -x {0.0 3.0 6 ------- null}
h -t 0.0553333333333333 -s 2 -d 3 -p cbr -e 500 -c 0 -i 6 -a 0 -x {0.0 3.0 -1 ------- null}
r -t 0.0576666666666667 -s 0 -d 1 -p cbr -e 500 -c 0 -i 9 -a 0 -x {0.0 3.0 9 ------- null}
+ -t 0.0576666666666667 -s 1 -d 2 -p cbr -e 500 -c 0 -i 9 -a 0 -x {0.0 3.0 9 ------- null}
- -t 0.0576666666666667 -s 1 -d 2 -p cbr -e 500 -c 0 -i 9 -a 0 -x {0.0 3.0 9 ------- null}
h -t 0.0576666666666667 -s 1 -d 2 -p cbr -e 500 -c 0 -i 9 -a 0 -x {0.0 3.0 -1 ------- null}
r -t 0.058 -s 2 -d 3 -p cbr -e 500 -c 0 -i 4 -a 0 -x {0.0 3.0 4 ------- null}
+ -t 0.06 -s 0 -d 1 -p cbr -e 500 -c 0 -i 12 -a 0 -x {0.0 3.0 12 ------- null}
- -t 0.06 -s 0 -d 1 -p cbr -e 500 -c 0 -i 12 -a 0 -x {0.0 3.0 12 ------- null}
h -t 0.06 -s 0 -d 1 -p cbr -e 500 -c 0 -i 12 -a 0 -x {0.0 3.0 -1 ------- null}
r -t 0.0603333333333333 -s 1 -d 2 -p cbr -e 500 -c 0 -i 7 -a 0 -x {0.0 3.0 7 ------- null}
+ -t 0.0603333333333333 -s 2 -d 3 -p cbr -e 500 -c 0 -i 7 -a 0 -x {0.0 3.0 7 ------- null}
- -t 0.0603333333333333 -s 2 -d 3 -p cbr -e 500 -c 0 -i 7 -a 0 -x {0.0 3.0 7 ------- null}
h -t 0.0603333333333333 -s 2 -d 3 -p cbr -e 500 -c 0 -i 7 -a 0 -x {0.0 3.0 -1 ------- null}
r -t 0.0626666666666667 -s 0 -d 1 -p cbr -e 500 -c 0 -i 10 -a 0 -x {0.0 3.0 10 ------- null}
+ -t 0.0626666666666667 -s 1 -d 2 -p cbr -e 500 -c 0 -i 10 -a 0 -x {0.0 3.0 10 ------- null}
- -t 0.0626666666666667 -s 1 -d 2 -p cbr -e 500 -c 0 -i 10 -a 0 -x {0.0 3.0 10 ------- null}
h -t 0.0626666666666667 -s 1 -d 2 -p cbr -e 500 -c 0 -i 10 -a 0 -x {0.0 3.0 -1 ------- null}
r -t 0.063 -s 2 -d 3 -p cbr -e 500 -c 0 -i 5 -a 0 -x {0.0 3.0 5 ------- null}
+ -t 0.065 -s 0 -d 1 -p cbr -e 500 -c 0 -i 13 -a 0 -x {0.0 3.0 13 ------- null}
- -t 0.065 -s 0 -d 1 -p cbr -e 500 -c 0 -i 13 -a 0 -x {0.0 3.0 13 ------- null}
h -t 0.065 -s 0 -d 1 -p cbr -e 500 -c 0 -i 13 -a 0 -x {0.0 3.0 -1 ------- null}
r -t 0.0653333333333333 -s 1 -d 2 -p cbr -e 500 -c 0 -i 8 -a 0 -x {0.0 3.0 8 ------- null}
+ -t 0.0653333333333333 -s 2 -d 3 -p cbr -e 500 -c 0 -i 8 -a 0 -x {0.0 3.0 8 ------- null}
- -t 0.0653333333333333 -s 2 -d 3 -p cbr -e 500 -c 0 -i 8 -a 0 -x {0.0 3.0 8 ------- null}
h -t 0.0653333333333333 -s 2 -d 3 -p cbr -e 500 -c 0 -i 8 -a 0 -x {0.0 3.0 -1 ------- null}
r -t 0.0676666666666667 -s 0 -d 1 -p cbr -e 500 -c 0 -i 11 -a 0 -x {0.0 3.0 11 ------- null}
+ -t 0.0676666666666667 -s 1 -d 2 -p cbr -e 500 -c 0 -i 11 -a 0 -x {0.0 3.0 11 ------- null}
- -t 0.0676666666666667 -s 1 -d 2 -p cbr -e 500 -c 0 -i 11 -a 0 -x {0.0 3.0 11 ------- null}
h -t 0.0676666666666667 -s 1 -d 2 -p cbr -e 500 -c 0 -i 11 -a 0 -x {0.0 3.0 -1 ------- null}
r -t 0.068 -s 2 -d 3 -p cbr -e 500 -c 0 -i 6 -a 0 -x {0.0 3.0 6 ------- null}
+ -t 0.07 -s 0 -d 1 -p cbr -e 500 -c 0 -i 14 -a 0 -x {0.0 3.0 14 ------- null}
- -t 0.07 -s 0 -d 1 -p cbr -e 500 -c 0 -i 14 -a 0 -x {0.0 3.0 14 ------- null}
h -t 0.07 -s 0 -d 1 -p cbr -e 500 -c 0 -i 14 -a 0 -x {0.0 3.0 -1 ------- null}
r -t 0.0703333333333333 -s 1 -d 2 -p cbr -e 500 -c 0 -i 9 -a 0 -x {0.0 3.0 9 ------- null}
+ -t 0.0703333333333333 -s 2 -d 3 -p cbr -e 500 -c 0 -i 9 -a 0 -x {0.0 3.0 9 ------- null}
- -t 0.0703333333333333 -s 2 -d 3 -p cbr -e 500 -c 0 -i 9 -a 0 -x {0.0 3.0 9 ------- null}
h -t 0.0703333333333333 -s 2 -d 3 -p cbr -e 500 -c 0 -i 9 -a 0 -x {0.0 3.0 -1 ------- null}
r -t 0.0726666666666667 -s 0 -d 1 -p cbr -e 500 -c 0 -i 12 -a 0 -x {0.0 3.0 12 ------- null}
+ -t 0.0726666666666667 -s 1 -d 2 -p cbr -e 500 -c 0 -i 12 -a 0 -x {0.0 3.0 12 ------- null}
- -t 0.0726666666666667 -s 1 -d 2 -p cbr -e 500 -c 0 -i 12 -a 0 -x {0.0 3.0 12 ------- null}
h -t 0.0726666666666667 -s 1 -d 2 -p cbr -e 500 -c 0 -i 12 -a 0 -x {0.0 3.0 -1 ------- null}
r -t 0.073 -s 2 -d 3 -p cbr -e 500 -c 0 -i 7 -a 0 -x {0.0 3.0 7 ------- null}
+ -t 0.075 -s 0 -d 1 -p cbr -e 500 -c 0 -i 15 -a 0 -x {0.0 3.0 15 ------- null}
- -t 0.075 -s 0 -d 1 -p cbr -e 500 -c 0 -i 15 -a 0 -x {0.0 3.0 15 ------- null}
h -t 0.075 -s 0 -d 1 -p cbr -e 500 -c 0 -i 15 -a 0 -x {0.0 3.0 -1 ------- null}
r -t 0.0753333333333333 -s 1 -d 2 -p cbr -e 500 -c 0 -i 10 -a 0 -x {0.0 3.0 10 ------- null}
+ -t 0.0753333333333333 -s 2 -d 3 -p cbr -e 500 -c 0 -i 10 -a 0 -x {0.0 3.0 10 ------- null}
- -t 0.0753333333333333 -s 2 -d 3 -p cbr -e 500 -c 0 -i 10 -a 0 -x {0.0 3.0 10 ------- null}
h -t 0.0753333333333333 -s 2 -d 3 -p cbr -e 500 -c 0 -i 10 -a 0 -x {0.0 3.0 -1 ------- null}
r -t 0.0776666666666667 -s 0 -d 1 -p cbr -e 500 -c 0 -i 13 -a 0 -x {0.0 3.0 13 ------- null}
+ -t 0.0776666666666667 -s 1 -d 2 -p cbr -e 500 -c 0 -i 13 -a 0 -x {0.0 3.0 13 ------- null}
- -t 0.0776666666666667 -s 1 -d 2 -p cbr -e 500 -c 0 -i 13 -a 0 -x {0.0 3.0 13 ------- null}
h -t 0.0776666666666667 -s 1 -d 2 -p cbr -e 500 -c 0 -i 13 -a 0 -x {0.0 3.0 -1 ------- null}
r -t 0.078 -s 2 -d 3 -p cbr -e 500 -c 0 -i 8 -a 0 -x {0.0 3.0 8 ------- null}
+ -t 0.08 -s 0 -d 1 -p cbr -e 500 -c 0 -i 16 -a 0 -x {0.0 3.0 16 ------- null}
- -t 0.08 -s 0 -d 1 -p cbr -e 500 -c 0 -i 16 -a 0 -x {0.0 3.0 16 ------- null}
h -t 0.08 -s 0 -d 1 -p cbr -e 500 -c 0 -i 16 -a 0 -x {0.0 3.0 -1 ------- null}
r -t 0.0803333333333333 -s 1 -d 2 -p cbr -e 500 -c 0 -i 11 -a 0 -x {0.0 3.0 11 ------- null}
+ -t 0.0803333333333333 -s 2 -d 3 -p cbr -e 500 -c 0 -i 11 -a 0 -x {0.0 3.0 11 ------- null}
- -t 0.0803333333333333 -s 2 -d 3 -p cbr -e 500 -c 0 -i 11 -a 0 -x {0.0 3.0 11 ------- null}
h -t 0.0803333333333333 -s 2 -d 3 -p cbr -e 500 -c 0 -i 11 -a 0 -x {0.0 3.0 -1 ------- null}
r -t 0.0826666666666667 -s 0 -d 1 -p cbr -e 500 -c 0 -i 14 -a 0 -x {0.0 3.0 14 ------- null}
+ -t 0.0826666666666667 -s 1 -d 2 -p cbr -e 500 -c 0 -i 14 -a 0 -x {0.0 3.0 14 ------- null}
- -t 0.0826666666666667 -s 1 -d 2 -p cbr -e 500 -c 0 -i 14 -a 0 -x {0.0 3.0 14 ------- null}
h -t 0.0826666666666667 -s 1 -d 2 -p cbr -e 500 -c 0 -i 14 -a 0 -x {0.0 3.0 -1 ------- null}
r -t 0.083 -s 2 -d 3 -p cbr -e 500 -c 0 -i 9 -a 0 -x {0.0 3.0 9 ------- null}
+ -t 0.085 -s 0 -d 1 -p cbr -e 500 -c 0 -i 17 -a 0 -x {0.0 3.0 17 ------- null}
- -t 0.085 -s 0 -d 1 -p cbr -e 500 -c 0 -i 17 -a 0 -x {0.0 3.0 17 ------- null}
h -t 0.085 -s 0 -d 1 -p cbr -e 500 -c 0 -i 17 -a 0 -x {0.0 3.0 -1 ------- null}
r -t 0.0853333333333333 -s 1 -d 2 -p cbr -e 500 -c 0 -i 12 -a 0 -x {0.0 3.0 12 ------- null}
+ -t 0.0853333333333333 -s 2 -d 3 -p cbr -e 500 -c 0 -i 12 -a 0 -x {0.0 3.0 12 ------- null}
- -t 0.0853333333333333 -s 2 -d 3 -p cbr -e 500 -c 0 -i 12 -a 0 -x {0.0 3.0 12 ------- null}
h -t 0.0853333333333333 -s 2 -d 3 -p cbr -e 500 -c 0 -i 12 -a 0 -x {0.0 3.0 -1 ------- null}
r -t 0.0876666666666667 -s 0 -d 1 -p cbr -e 500 -c 0 -i 15 -a 0 -x {0.0 3.0 15 ------- null}
+ -t 0.0876666666666667 -s 1 -d 2 -p cbr -e 500 -c 0 -i 15 -a 0 -x {0.0 3.0 15 ------- null}
- -t 0.0876666666666667 -s 1 -d 2 -p cbr -e 500 -c 0 -i 15 -a 0 -x {0.0 3.0 15 ------- null}
h -t 0.0876666666666667 -s 1 -d 2 -p cbr -e 500 -c 0 -i 15 -a 0 -x {0.0 3.0 -1 ------- null}
r -t 0.088 -s 2 -d 3 -p cbr -e 500 -c 0 -i 10 -a 0 -x {0.0 3.0 10 ------- null}
+ -t 0.09 -s 0 -d 1 -p cbr -e 500 -c 0 -i 18 -a 0 -x {0.0 3.0 18 ------- null}
- -t 0.09 -s 0 -d 1 -p cbr -e 500 -c 0 -i 18 -a 0 -x {0.0 3.0 18 ------- null}
h -t 0.09 -s 0 -d 1 -p cbr -e 500 -c 0 -i 18 -a 0 -x {0.0 3.0 -1 ------- null}
r -t 0.0903333333333333 -s 1 -d 2 -p cbr -e 500 -c 0 -i 13 -a 0 -x {0.0 3.0 13 ------- null}
+ -t 0.0903333333333333 -s 2 -d 3 -p cbr -e 500 -c 0 -i 13 -a 0 -x {0.0 3.0 13 ------- null}
- -t 0.0903333333333333 -s 2 -d 3 -p cbr -e 500 -c 0 -i 13 -a 0 -x {0.0 3.0 13 ------- null}
h -t 0.0903333333333333 -s 2 -d 3 -p cbr -e 500 -c 0 -i 13 -a 0 -x {0.0 3.0 -1 ------- null}
r -t 0.0926666666666667 -s 0 -d 1 -p cbr -e 500 -c 0 -i 16 -a 0 -x {0.0 3.0 16 ------- null}
+ -t 0.0926666666666667 -s 1 -d 2 -p cbr -e 500 -c 0 -i 16 -a 0 -x {0.0 3.0 16 ------- null}
- -t 0.0926666666666667 -s 1 -d 2 -p cbr -e 500 -c 0 -i 16 -a 0 -x {0.0 3.0 16 ------- null}
h -t 0.0926666666666667 -s 1 -d 2 -p cbr -e 500 -c 0 -i 16 -a 0 -x {0.0 3.0 -1 ------- null}
r -t 0.093 -s 2 -d 3 -p cbr -e 500 -c 0 -i 11 -a 0 -x {0.0 3.0 11 ------- null}
+ -t 0.095 -s 0 -d 1 -p cbr -e 500 -c 0 -i 19 -a 0 -x {0.0 3.0 19 ------- null}
- -t 0.095 -s 0 -d 1 -p cbr -e 500 -c 0 -i 19 -a 0 -x {0.0 3.0 19 ------- null}
h -t 0.095 -s 0 -d 1 -p cbr -e 500 -c 0 -i 19 -a 0 -x {0.0 3.0 -1 ------- null}
r -t 0.0953333333333333 -s 1 -d 2 -p cbr -e 500 -c 0 -i 14 -a 0 -x {0.0 3.0 14 ------- null}
+ -t 0.0953333333333333 -s 2 -d 3 -p cbr -e 500 -c 0 -i 14 -a 0 -x {0.0 3.0 14 ------- null}
- -t 0.0953333333333333 -s 2 -d 3 -p cbr -e 500 -c 0 -i 14 -a 0 -x {0.0 3.0 14 ------- null}
h -t 0.0953333333333333 -s 2 -d 3 -p cbr -e 500 -c 0 -i 14 -a 0 -x {0.0 3.0 -1 ------- null}
r -t 0.0976666666666667 -s 0 -d 1 -p cbr -e 500 -c 0 -i 17 -a 0 -x {0.0 3.0 17 ------- null}
+ -t 0.0976666666666667 -s 1 -d 2 -p cbr -e 500 -c 0 -i 17 -a 0 -x {0.0 3.0 17 ------- null}
- -t 0.0976666666666667 -s 1 -d 2 -p cbr -e 500 -c 0 -i 17 -a 0 -x {0.0 3.0 17 ------- null}
h -t 0.0976666666666667 -s 1 -d 2 -p cbr -e 500 -c 0 -i 17 -a 0 -x {0.0 3.0 -1 ------- null}
r -t 0.098 -s 2 -d 3 -p cbr -e 500 -c 0 -i 12 -a 0 -x {0.0 3.0 12 ------- null}
+ -t 0.1 -s 0 -d 1 -p cbr -e 500 -c 0 -i 20 -a 0 -x {0.0 3.0 20 ------- null}
- -t 0.1 -s 0 -d 1 -p cbr -e 500 -c 0 -i 20 -a 0 -x {0.0 3.0 20 ------- null}
h -t 0.1 -s 0 -d 1 -p cbr -e 500 -c 0 -i 20 -a 0 -x {0.0 3.0 -1 ------- null}
r -t 0.100333333333333 -s 1 -d 2 -p cbr -e 500 -c 0 -i 15 -a 0 -x {0.0 3.0 15 ------- null}
+ -t 0.100333333333333 -s 2 -d 3 -p cbr -e 500 -c 0 -i 15 -a 0 -x {0.0 3.0 15 ------- null}
- -t 0.100333333333333 -s 2 -d 3 -p cbr -e 500 -c 0 -i 15 -a 0 -x {0.0 3.0 15 ------- null}
h -t 0.100333333333333 -s 2 -d 3 -p cbr -e 500 -c 0 -i 15 -a 0 -x {0.0 3.0 -1 ------- null}
r -t 0.102666666666667 -s 0 -d 1 -p cbr -e 500 -c 0 -i 18 -a 0 -x {0.0 3.0 18 ------- null}
+ -t 0.102666666666667 -s 1 -d 2 -p cbr -e 500 -c 0 -i 18 -a 0 -x {0.0 3.0 18 ------- null}
- -t 0.102666666666667 -s 1 -d 2 -p cbr -e 500 -c 0 -i 18 -a 0 -x {0.0 3.0 18 ------- null}
h -t 0.102666666666667 -s 1 -d 2 -p cbr -e 500 -c 0 -i 18 -a 0 -x {0.0 3.0 -1 ------- null}
r -t 0.103 -s 2 -d 3 -p cbr -e 500 -c 0 -i 13 -a 0 -x {0.0 3.0 13 ------- null}
+ -t 0.105 -s 0 -d 1 -p cbr -e 500 -c 0 -i 21 -a 0 -x {0.0 3.0 21 ------- null}
- -t 0.105 -s 0 -d 1 -p cbr -e 500 -c 0 -i 21 -a 0 -x {0.0 3.0 21 ------- null}
h -t 0.105 -s 0 -d 1 -p cbr -e 500 -c 0 -i 21 -a 0 -x {0.0 3.0 -1 ------- null}
r -t 0.105333333333333 -s 1 -d 2 -p cbr -e 500 -c 0 -i 16 -a 0 -x {0.0 3.0 16 ------- null}
+ -t 0.105333333333333 -s 2 -d 3 -p cbr -e 500 -c 0 -i 16 -a 0 -x {0.0 3.0 16 ------- null}
- -t 0.105333333333333 -s 2 -d 3 -p cbr -e 500 -c 0 -i 16 -a 0 -x {0.0 3.0 16 ------- null}
h -t 0.105333333333333 -s 2 -d 3 -p cbr -e 500 -c 0 -i 16 -a 0 -x {0.0 3.0 -1 ------- null}
r -t 0.107666666666667 -s 0 -d 1 -p cbr -e 500 -c 0 -i 19 -a 0 -x {0.0 3.0 19 ------- null}
+ -t 0.107666666666667 -s 1 -d 2 -p cbr -e 500 -c 0 -i 19 -a 0 -x {0.0 3.0 19 ------- null}
- -t 0.107666666666667 -s 1 -d 2 -p cbr -e 500 -c 0 -i 19 -a 0 -x {0.0 3.0 19 ------- null}
h -t 0.107666666666667 -s 1 -d 2 -p cbr -e 500 -c 0 -i 19 -a 0 -x {0.0 3.0 -1 ------- null}
r -t 0.108 -s 2 -d 3 -p cbr -e 500 -c 0 -i 14 -a 0 -x {0.0 3.0 14 ------- null}
+ -t 0.11 -s 0 -d 1 -p cbr -e 500 -c 0 -i 22 -a 0 -x {0.0 3.0 22 ------- null}
- -t 0.11 -s 0 -d 1 -p cbr -e 500 -c 0 -i 22 -a 0 -x {0.0 3.0 22 ------- null}
h -t 0.11 -s 0 -d 1 -p cbr -e 500 -c 0 -i 22 -a 0 -x {0.0 3.0 -1 ------- null}
r -t 0.110333333333333 -s 1 -d 2 -p cbr -e 500 -c 0 -i 17 -a 0 -x {0.0 3.0 17 ------- null}
+ -t 0.110333333333333 -s 2 -d 3 -p cbr -e 500 -c 0 -i 17 -a 0 -x {0.0 3.0 17 ------- null}
- -t 0.110333333333333 -s 2 -d 3 -p cbr -e 500 -c 0 -i 17 -a 0 -x {0.0 3.0 17 ------- null}
h -t 0.110333333333333 -s 2 -d 3 -p cbr -e 500 -c 0 -i 17 -a 0 -x {0.0 3.0 -1 ------- null}
r -t 0.112666666666667 -s 0 -d 1 -p cbr -e 500 -c 0 -i 20 -a 0 -x {0.0 3.0 20 ------- null}
+ -t 0.112666666666667 -s 1 -d 2 -p cbr -e 500 -c 0 -i 20 -a 0 -x {0.0 3.0 20 ------- null}
- -t 0.112666666666667 -s 1 -d 2 -p cbr -e 500 -c 0 -i 20 -a 0 -x {0.0 3.0 20 ------- null}
h -t 0.112666666666667 -s 1 -d 2 -p cbr -e 500 -c 0 -i 20 -a 0 -x {0.0 3.0 -1 ------- null}
r -t 0.113 -s 2 -d 3 -p cbr -e 500 -c 0 -i 15 -a 0 -x {0.0 3.0 15 ------- null}
+ -t 0.115 -s 0 -d 1 -p cbr -e 500 -c 0 -i 23 -a 0 -x {0.0 3.0 23 ------- null}
- -t 0.115 -s 0 -d 1 -p cbr -e 500 -c 0 -i 23 -a 0 -x {0.0 3.0 23 ------- null}
h -t 0.115 -s 0 -d 1 -p cbr -e 500 -c 0 -i 23 -a 0 -x {0.0 3.0 -1 ------- null}
r -t 0.115333333333333 -s 1 -d 2 -p cbr -e 500 -c 0 -i 18 -a 0 -x {0.0 3.0 18 ------- null}
+ -t 0.115333333333333 -s 2 -d 3 -p cbr -e 500 -c 0 -i 18 -a 0 -x {0.0 3.0 18 ------- null}
- -t 0.115333333333333 -s 2 -d 3 -p cbr -e 500 -c 0 -i 18 -a 0 -x {0.0 3.0 18 ------- null}
h -t 0.115333333333333 -s 2 -d 3 -p cbr -e 500 -c 0 -i 18 -a 0 -x {0.0 3.0 -1 ------- null}
r -t 0.117666666666667 -s 0 -d 1 -p cbr -e 500 -c 0 -i 21 -a 0 -x {0.0 3.0 21 ------- null}
+ -t 0.117666666666667 -s 1 -d 2 -p cbr -e 500 -c 0 -i 21 -a 0 -x {0.0 3.0 21 ------- null}
- -t 0.117666666666667 -s 1 -d 2 -p cbr -e 500 -c 0 -i 21 -a 0 -x {0.0 3.0 21 ------- null}
h -t 0.117666666666667 -s 1 -d 2 -p cbr -e 500 -c 0 -i 21 -a 0 -x {0.0 3.0 -1 ------- null}
r -t 0.118 -s 2 -d 3 -p cbr -e 500 -c 0 -i 16 -a 0 -x {0.0 3.0 16 ------- null}
+ -t 0.12 -s 0 -d 1 -p cbr -e 500 -c 0 -i 24 -a 0 -x {0.0 3.0 24 ------- null}
- -t 0.12 -s 0 -d 1 -p cbr -e 500 -c 0 -i 24 -a 0 -x {0.0 3.0 24 ------- null}
h -t 0.12 -s 0 -d 1 -p cbr -e 500 -c 0 -i 24 -a 0 -x {0.0 3.0 -1 ------- null}
r -t 0.120333333333333 -s 1 -d 2 -p cbr -e 500 -c 0 -i 19 -a 0 -x {0.0 3.0 19 ------- null}
+ -t 0.120333333333333 -s 2 -d 3 -p cbr -e 500 -c 0 -i 19 -a 0 -x {0.0 3.0 19 ------- null}
- -t 0.120333333333333 -s 2 -d 3 -p cbr -e 500 -c 0 -i 19 -a 0 -x {0.0 3.0 19 ------- null}
h -t 0.120333333333333 -s 2 -d 3 -p cbr -e 500 -c 0 -i 19 -a 0 -x {0.0 3.0 -1 ------- null}
r -t 0.122666666666667 -s 0 -d 1 -p cbr -e 500 -c 0 -i 22 -a 0 -x {0.0 3.0 22 ------- null}
+ -t 0.122666666666667 -s 1 -d 2 -p cbr -e 500 -c 0 -i 22 -a 0 -x {0.0 3.0 22 ------- null}
- -t 0.122666666666667 -s 1 -d 2 -p cbr -e 500 -c 0 -i 22 -a 0 -x {0.0 3.0 22 ------- null}
h -t 0.122666666666667 -s 1 -d 2 -p cbr -e 500 -c 0 -i 22 -a 0 -x {0.0 3.0 -1 ------- null}
r -t 0.123 -s 2 -d 3 -p cbr -e 500 -c 0 -i 17 -a 0 -x {0.0 3.0 17 ------- null}
+ -t 0.125 -s 0 -d 1 -p cbr -e 500 -c 0 -i 25 -a 0 -x {0.0 3.0 25 ------- null}
- -t 0.125 -s 0 -d 1 -p cbr -e 500 -c 0 -i 25 -a 0 -x {0.0 3.0 25 ------- null}
h -t 0.125 -s 0 -d 1 -p cbr -e 500 -c 0 -i 25 -a 0 -x {0.0 3.0 -1 ------- null}
r -t 0.125333333333333 -s 1 -d 2 -p cbr -e 500 -c 0 -i 20 -a 0 -x {0.0 3.0 20 ------- null}
+ -t 0.125333333333333 -s 2 -d 3 -p cbr -e 500 -c 0 -i 20 -a 0 -x {0.0 3.0 20 ------- null}
- -t 0.125333333333333 -s 2 -d 3 -p cbr -e 500 -c 0 -i 20 -a 0 -x {0.0 3.0 20 ------- null}
h -t 0.125333333333333 -s 2 -d 3 -p cbr -e 500 -c 0 -i 20 -a 0 -x {0.0 3.0 -1 ------- null}
r -t 0.127666666666667 -s 0 -d 1 -p cbr -e 500 -c 0 -i 23 -a 0 -x {0.0 3.0 23 ------- null}
+ -t 0.127666666666667 -s 1 -d 2 -p cbr -e 500 -c 0 -i 23 -a 0 -x {0.0 3.0 23 ------- null}
- -t 0.127666666666667 -s 1 -d 2 -p cbr -e 500 -c 0 -i 23 -a 0 -x {0.0 3.0 23 ------- null}
h -t 0.127666666666667 -s 1 -d 2 -p cbr -e 500 -c 0 -i 23 -a 0 -x {0.0 3.0 -1 ------- null}
r -t 0.128 -s 2 -d 3 -p cbr -e 500 -c 0 -i 18 -a 0 -x {0.0 3.0 18 ------- null}
+ -t 0.13 -s 0 -d 1 -p cbr -e 500 -c 0 -i 26 -a 0 -x {0.0 3.0 26 ------- null}
- -t 0.13 -s 0 -d 1 -p cbr -e 500 -c 0 -i 26 -a 0 -x {0.0 3.0 26 ------- null}
h -t 0.13 -s 0 -d 1 -p cbr -e 500 -c 0 -i 26 -a 0 -x {0.0 3.0 -1 ------- null}
r -t 0.130333333333333 -s 1 -d 2 -p cbr -e 500 -c 0 -i 21 -a 0 -x {0.0 3.0 21 ------- null}
+ -t 0.130333333333333 -s 2 -d 3 -p cbr -e 500 -c 0 -i 21 -a 0 -x {0.0 3.0 21 ------- null}
- -t 0.130333333333333 -s 2 -d 3 -p cbr -e 500 -c 0 -i 21 -a 0 -x {0.0 3.0 21 ------- null}
h -t 0.130333333333333 -s 2 -d 3 -p cbr -e 500 -c 0 -i 21 -a 0 -x {0.0 3.0 -1 ------- null}
r -t 0.132666666666667 -s 0 -d 1 -p cbr -e 500 -c 0 -i 24 -a 0 -x {0.0 3.0 24 ------- null}
+ -t 0.132666666666667 -s 1 -d 2 -p cbr -e 500 -c 0 -i 24 -a 0 -x {0.0 3.0 24 ------- null}
- -t 0.132666666666667 -s 1 -d 2 -p cbr -e 500 -c 0 -i 24 -a 0 -x {0.0 3.0 24 ------- null}
h -t 0.132666666666667 -s 1 -d 2 -p cbr -e 500 -c 0 -i 24 -a 0 -x {0.0 3.0 -1 ------- null}
r -t 0.133 -s 2 -d 3 -p cbr -e 500 -c 0 -i 19 -a 0 -x {0.0 3.0 19 ------- null}
+ -t 0.135 -s 0 -d 1 -p cbr -e 500 -c 0 -i 27 -a 0 -x {0.0 3.0 27 ------- null}
- -t 0.135 -s 0 -d 1 -p cbr -e 500 -c 0 -i 27 -a 0 -x {0.0 3.0 27 ------- null}
h -t 0.135 -s 0 -d 1 -p cbr -e 500 -c 0 -i 27 -a 0 -x {0.0 3.0 -1 ------- null}
r -t 0.135333333333333 -s 1 -d 2 -p cbr -e 500 -c 0 -i 22 -a 0 -x {0.0 3.0 22 ------- null}
+ -t 0.135333333333333 -s 2 -d 3 -p cbr -e 500 -c 0 -i 22 -a 0 -x {0.0 3.0 22 ------- null}
- -t 0.135333333333333 -s 2 -d 3 -p cbr -e 500 -c 0 -i 22 -a 0 -x {0.0 3.0 22 ------- null}
h -t 0.135333333333333 -s 2 -d 3 -p cbr -e 500 -c 0 -i 22 -a 0 -x {0.0 3.0 -1 ------- null}
r -t 0.137666666666667 -s 0 -d 1 -p cbr -e 500 -c 0 -i 25 -a 0 -x {0.0 3.0 25 ------- null}
+ -t 0.137666666666667 -s 1 -d 2 -p cbr -e 500 -c 0 -i 25 -a 0 -x {0.0 3.0 25 ------- null}
- -t 0.137666666666667 -s 1 -d 2 -p cbr -e 500 -c 0 -i 25 -a 0 -x {0.0 3.0 25 ------- null}
h -t 0.137666666666667 -s 1 -d 2 -p cbr -e 500 -c 0 -i 25 -a 0 -x {0.0 3.0 -1 ------- null}
r -t 0.138 -s 2 -d 3 -p cbr -e 500 -c 0 -i 20 -a 0 -x {0.0 3.0 20 ------- null}
+ -t 0.14 -s 0 -d 1 -p cbr -e 500 -c 0 -i 28 -a 0 -x {0.0 3.0 28 ------- null}
- -t 0.14 -s 0 -d 1 -p cbr -e 500 -c 0 -i 28 -a 0 -x {0.0 3.0 28 ------- null}
h -t 0.14 -s 0 -d 1 -p cbr -e 500 -c 0 -i 28 -a 0 -x {0.0 3.0 -1 ------- null}
r -t 0.140333333333333 -s 1 -d 2 -p cbr -e 500 -c 0 -i 23 -a 0 -x {0.0 3.0 23 ------- null}
+ -t 0.140333333333333 -s 2 -d 3 -p cbr -e 500 -c 0 -i 23 -a 0 -x {0.0 3.0 23 ------- null}
- -t 0.140333333333333 -s 2 -d 3 -p cbr -e 500 -c 0 -i 23 -a 0 -x {0.0 3.0 23 ------- null}
h -t 0.140333333333333 -s 2 -d 3 -p cbr -e 500 -c 0 -i 23 -a 0 -x {0.0 3.0 -1 ------- null}
r -t 0.142666666666667 -s 0 -d 1 -p cbr -e 500 -c 0 -i 26 -a 0 -x {0.0 3.0 26 ------- null}
+ -t 0.142666666666667 -s 1 -d 2 -p cbr -e 500 -c 0 -i 26 -a 0 -x {0.0 3.0 26 ------- null}
- -t 0.142666666666667 -s 1 -d 2 -p cbr -e 500 -c 0 -i 26 -a 0 -x {0.0 3.0 26 ------- null}
h -t 0.142666666666667 -s 1 -d 2 -p cbr -e 500 -c 0 -i 26 -a 0 -x {0.0 3.0 -1 ------- null}
r -t 0.143 -s 2 -d 3 -p cbr -e 500 -c 0 -i 21 -a 0 -x {0.0 3.0 21 ------- null}
+ -t 0.145 -s 0 -d 1 -p cbr -e 500 -c 0 -i 29 -a 0 -x {0.0 3.0 29 ------- null}
- -t 0.145 -s 0 -d 1 -p cbr -e 500 -c 0 -i 29 -a 0 -x {0.0 3.0 29 ------- null}
h -t 0.145 -s 0 -d 1 -p cbr -e 500 -c 0 -i 29 -a 0 -x {0.0 3.0 -1 ------- null}
r -t 0.145333333333333 -s 1 -d 2 -p cbr -e 500 -c 0 -i 24 -a 0 -x {0.0 3.0 24 ------- null}
+ -t 0.145333333333333 -s 2 -d 3 -p cbr -e 500 -c 0 -i 24 -a 0 -x {0.0 3.0 24 ------- null}
- -t 0.145333333333333 -s 2 -d 3 -p cbr -e 500 -c 0 -i 24 -a 0 -x {0.0 3.0 24 ------- null}
h -t 0.145333333333333 -s 2 -d 3 -p cbr -e 500 -c 0 -i 24 -a 0 -x {0.0 3.0 -1 ------- null}
r -t 0.147666666666667 -s 0 -d 1 -p cbr -e 500 -c 0 -i 27 -a 0 -x {0.0 3.0 27 ------- null}
+ -t 0.147666666666667 -s 1 -d 2 -p cbr -e 500 -c 0 -i 27 -a 0 -x {0.0 3.0 27 ------- null}
- -t 0.147666666666667 -s 1 -d 2 -p cbr -e 500 -c 0 -i 27 -a 0 -x {0.0 3.0 27 ------- null}
h -t 0.147666666666667 -s 1 -d 2 -p cbr -e 500 -c 0 -i 27 -a 0 -x {0.0 3.0 -1 ------- null}
r -t 0.148 -s 2 -d 3 -p cbr -e 500 -c 0 -i 22 -a 0 -x {0.0 3.0 22 ------- null}
+ -t 0.15 -s 0 -d 1 -p cbr -e 500 -c 0 -i 30 -a 0 -x {0.0 3.0 30 ------- null}
- -t 0.15 -s 0 -d 1 -p cbr -e 500 -c 0 -i 30 -a 0 -x {0.0 3.0 30 ------- null}
h -t 0.15 -s 0 -d 1 -p cbr -e 500 -c 0 -i 30 -a 0 -x {0.0 3.0 -1 ------- null}
r -t 0.150333333333333 -s 1 -d 2 -p cbr -e 500 -c 0 -i 25 -a 0 -x {0.0 3.0 25 ------- null}
+ -t 0.150333333333333 -s 2 -d 3 -p cbr -e 500 -c 0 -i 25 -a 0 -x {0.0 3.0 25 ------- null}
- -t 0.150333333333333 -s 2 -d 3 -p cbr -e 500 -c 0 -i 25 -a 0 -x {0.0 3.0 25 ------- null}
h -t 0.150333333333333 -s 2 -d 3 -p cbr -e 500 -c 0 -i 25 -a 0 -x {0.0 3.0 -1 ------- null}
r -t 0.152666666666667 -s 0 -d 1 -p cbr -e 500 -c 0 -i 28 -a 0 -x {0.0 3.0 28 ------- null}