+ 0 0 1 cbr 500 ------- 0 0.0 3.0 0 0
- 0 0 1 cbr 500 ------- 0 0.0 3.0 0 0
+ 0.005 0 1 cbr 500 ------- 0 0.0 3.0 1 1
- 0.005 0 1 cbr 500 ------- 0 0.0 3.0 1 1
+ 0.01 0 1 cbr 500 ------- 0 0.0 3.0 2 2
- 0.01 0 1 cbr 500 ------- 0 0.0 3.0 2 2
r 0.012667 0 1 cbr 500 ------- 0 0.0 3.0 0 0
+ 0.012667 1 2 cbr 500 ------- 0 0.0 3.0 0 0
- 0.012667 1 2 cbr 500 ------- 0 0.0 3.0 0 0
+ 0.015 0 1 cbr 500 ------- 0 0.0 3.0 3 3
- 0.015 0 1 cbr 500 ------- 0 0.0 3.0 3 3
r 0.017667 0 1 cbr 500 ------- 0 0.0 3.0 1 1
+ 0.017667 1 2 cbr 500 ------- 0 0.0 3.0 1 1
- 0.017667 1 2 cbr 500 ------- 0 0.0 3.0 1 1
+ 0.02 0 1 cbr 500 ------- 0 0.0 3.0 4 4
- 0.02 0 1 cbr 500 ------- 0 0.0 3.0 4 4
r 0.022667 0 1 cbr 500 ------- 0 0.0 3.0 2 2
+ 0.022667 1 2 cbr 500 ------- 0 0.0 3.0 2 2
- 0.022667 1 2 cbr 500 ------- 0 0.0 3.0 2 2
+ 0.025 0 1 cbr 500 ------- 0 0.0 3.0 5 5
- 0.025 0 1 cbr 500 ------- 0 0.0 3.0 5 5
r 0.025333 1 2 cbr 500 ------- 0 0.0 3.0 0 0
+ 0.025333 2 3 cbr 500 ------- 0 0.0 3.0 0 0
- 0.025333 2 3 cbr 500 ------- 0 0.0 3.0 0 0
r 0.027667 0 1 cbr 500 ------- 0 0.0 3.0 3 3
+ 0.027667 1 2 cbr 500 ------- 0 0.0 3.0 3 3
- 0.027667 1 2 cbr 500 ------- 0 0.0 3.0 3 3
+ 0.03 0 1 cbr 500 ------- 0 0.0 3.0 6 6
- 0.03 0 1 cbr 500 ------- 0 0.0 3.0 6 6
r 0.030333 1 2 cbr 500 ------- 0 0.0 3.0 1 1
+ 0.030333 2 3 cbr 500 ------- 0 0.0 3.0 1 1
- 0.030333 2 3 cbr 500 ------- 0 0.0 3.0 1 1
r 0.032667 0 1 cbr 500 ------- 0 0.0 3.0 4 4
+ 0.032667 1 2 cbr 500 ------- 0 0.0 3.0 4 4
- 0.032667 1 2 cbr 500 ------- 0 0.0 3.0 4 4
+ 0.035 0 1 cbr 500 ------- 0 0.0 3.0 7 7
- 0.035 0 1 cbr 500 ------- 0 0.0 3.0 7 7
r 0.035333 1 2 cbr 500 ------- 0 0.0 3.0 2 2
+ 0.035333 2 3 cbr 500 ------- 0 0.0 3.0 2 2
- 0.035333 2 3 cbr 500 ------- 0 0.0 3.0 2 2
r 0.037667 0 1 cbr 500 ------- 0 0.0 3.0 5 5
+ 0.037667 1 2 cbr 500 ------- 0 0.0 3.0 5 5
- 0.037667 1 2 cbr 500 ------- 0 0.0 3.0 5 5
r 0.038 2 3 cbr 500 ------- 0 0.0 3.0 0 0
+ 0.04 0 1 cbr 500 ------- 0 0.0 3.0 8 8
- 0.04 0 1 cbr 500 ------- 0 0.0 3.0 8 8
r 0.040333 1 2 cbr 500 ------- 0 0.0 3.0 3 3
+ 0.040333 2 3 cbr 500 ------- 0 0.0 3.0 3 3
- 0.040333 2 3 cbr 500 ------- 0 0.0 3.0 3 3
r 0.042667 0 1 cbr 500 ------- 0 0.0 3.0 6 6
+ 0.042667 1 2 cbr 500 ------- 0 0.0 3.0 6 6
- 0.042667 1 2 cbr 500 ------- 0 0.0 3.0 6 6
r 0.043 2 3 cbr 500 ------- 0 0.0 3.0 1 1
+ 0.045 0 1 cbr 500 ------- 0 0.0 3.0 9 9
- 0.045 0 1 cbr 500 ------- 0 0.0 3.0 9 9
r 0.045333 1 2 cbr 500 ------- 0 0.0 3.0 4 4
+ 0.045333 2 3 cbr 500 ------- 0 0.0 3.0 4 4
- 0.045333 2 3 cbr 500 ------- 0 0.0 3.0 4 4
r 0.047667 0 1 cbr 500 ------- 0 0.0 3.0 7 7
+ 0.047667 1 2 cbr 500 ------- 0 0.0 3.0 7 7
- 0.047667 1 2 cbr 500 ------- 0 0.0 3.0 7 7
r 0.048 2 3 cbr 500 ------- 0 0.0 3.0 2 2
+ 0.05 0 1 cbr 500 ------- 0 0.0 3.0 10 10
- 0.05 0 1 cbr 500 ------- 0 0.0 3.0 10 10
r 0.050333 1 2 cbr 500 ------- 0 0.0 3.0 5 5
+ 0.050333 2 3 cbr 500 ------- 0 0.0 3.0 5 5
- 0.050333 2 3 cbr 500 ------- 0 0.0 3.0 5 5
r 0.052667 0 1 cbr 500 ------- 0 0.0 3.0 8 8
+ 0.052667 1 2 cbr 500 ------- 0 0.0 3.0 8 8
- 0.052667 1 2 cbr 500 ------- 0 0.0 3.0 8 8
r 0.053 2 3 cbr 500 ------- 0 0.0 3.0 3 3
+ 0.055 0 1 cbr 500 ------- 0 0.0 3.0 11 11
- 0.055 0 1 cbr 500 ------- 0 0.0 3.0 11 11
r 0.055333 1 2 cbr 500 ------- 0 0.0 3.0 6 6
+ 0.055333 2 3 cbr 500 ------- 0 0.0 3.0 6 6
- 0.055333 2 3 cbr 500 ------- 0 0.0 3.0 6 6
r 0.057667 0 1 cbr 500 ------- 0 0.0 3.0 9 9
+ 0.057667 1 2 cbr 500 ------- 0 0.0 3.0 9 9
- 0.057667 1 2 cbr 500 ------- 0 0.0 3.0 9 9
r 0.058 2 3 cbr 500 ------- 0 0.0 3.0 4 4
+ 0.06 0 1 cbr 500 ------- 0 0.0 3.0 12 12
- 0.06 0 1 cbr 500 ------- 0 0.0 3.0 12 12
r 0.060333 1 2 cbr 500 ------- 0 0.0 3.0 7 7
+ 0.060333 2 3 cbr 500 ------- 0 0.0 3.0 7 7
- 0.060333 2 3 cbr 500 ------- 0 0.0 3.0 7 7
r 0.062667 0 1 cbr 500 ------- 0 0.0 3.0 10 10
+ 0.062667 1 2 cbr 500 ------- 0 0.0 3.0 10 10
- 0.062667 1 2 cbr 500 ------- 0 0.0 3.0 10 10
r 0.063 2 3 cbr 500 ------- 0 0.0 3.0 5 5
+ 0.065 0 1 cbr 500 ------- 0 0.0 3.0 13 13
- 0.065 0 1 cbr 500 ------- 0 0.0 3.0 13 13
r 0.065333 1 2 cbr 500 ------- 0 0.0 3.0 8 8
+ 0.065333 2 3 cbr 500 ------- 0 0.0 3.0 8 8
- 0.065333 2 3 cbr 500 ------- 0 0.0 3.0 8 8
r 0.067667 0 1 cbr 500 ------- 0 0.0 3.0 11 11
+ 0.067667 1 2 cbr 500 ------- 0 0.0 3.0 11 11
- 0.067667 1 2 cbr 500 ------- 0 0.0 3.0 11 11
r 0.068 2 3 cbr 500 ------- 0 0.0 3.0 6 6
+ 0.07 0 1 cbr 500 ------- 0 0.0 3.0 14 14
- 0.07 0 1 cbr 500 ------- 0 0.0 3.0 14 14
r 0.070333 1 2 cbr 500 ------- 0 0.0 3.0 9 9
+ 0.070333 2 3 cbr 500 ------- 0 0.0 3.0 9 9
- 0.070333 2 3 cbr 500 ------- 0 0.0 3.0 9 9
r 0.072667 0 1 cbr 500 ------- 0 0.0 3.0 12 12
+ 0.072667 1 2 cbr 500 ------- 0 0.0 3.0 12 12
- 0.072667 1 2 cbr 500 ------- 0 0.0 3.0 12 12
r 0.073 2 3 cbr 500 ------- 0 0.0 3.0 7 7
+ 0.075 0 1 cbr 500 ------- 0 0.0 3.0 15 15
- 0.075 0 1 cbr 500 ------- 0 0.0 3.0 15 15
r 0.075333 1 2 cbr 500 ------- 0 0.0 3.0 10 10
+ 0.075333 2 3 cbr 500 ------- 0 0.0 3.0 10 10
- 0.075333 2 3 cbr 500 ------- 0 0.0 3.0 10 10
r 0.077667 0 1 cbr 500 ------- 0 0.0 3.0 13 13
+ 0.077667 1 2 cbr 500 ------- 0 0.0 3.0 13 13
- 0.077667 1 2 cbr 500 ------- 0 0.0 3.0 13 13
r 0.078 2 3 cbr 500 ------- 0 0.0 3.0 8 8
+ 0.08 0 1 cbr 500 ------- 0 0.0 3.0 16 16
- 0.08 0 1 cbr 500 ------- 0 0.0 3.0 16 16
r 0.080333 1 2 cbr 500 ------- 0 0.0 3.0 11 11
+ 0.080333 2 3 cbr 500 ------- 0 0.0 3.0 11 11
- 0.080333 2 3 cbr 500 ------- 0 0.0 3.0 11 11
r 0.082667 0 1 cbr 500 ------- 0 0.0 3.0 14 14
+ 0.082667 1 2 cbr 500 ------- 0 0.0 3.0 14 14
- 0.082667 1 2 cbr 500 ------- 0 0.0 3.0 14 14
r 0.083 2 3 cbr 500 ------- 0 0.0 3.0 9 9
+ 0.085 0 1 cbr 500 ------- 0 0.0 3.0 17 17
- 0.085 0 1 cbr 500 ------- 0 0.0 3.0 17 17
r 0.085333 1 2 cbr 500 ------- 0 0.0 3.0 12 12
+ 0.085333 2 3 cbr 500 ------- 0 0.0 3.0 12 12
- 0.085333 2 3 cbr 500 ------- 0 0.0 3.0 12 12
r 0.087667 0 1 cbr 500 ------- 0 0.0 3.0 15 15
+ 0.087667 1 2 cbr 500 ------- 0 0.0 3.0 15 15
- 0.087667 1 2 cbr 500 ------- 0 0.0 3.0 15 15
r 0.088 2 3 cbr 500 ------- 0 0.0 3.0 10 10
+ 0.09 0 1 cbr 500 ------- 0 0.0 3.0 18 18
- 0.09 0 1 cbr 500 ------- 0 0.0 3.0 18 18
r 0.090333 1 2 cbr 500 ------- 0 0.0 3.0 13 13
+ 0.090333 2 3 cbr 500 ------- 0 0.0 3.0 13 13
- 0.090333 2 3 cbr 500 ------- 0 0.0 3.0 13 13
r 0.092667 0 1 cbr 500 ------- 0 0.0 3.0 16 16
+ 0.092667 1 2 cbr 500 ------- 0 0.0 3.0 16 16
- 0.092667 1 2 cbr 500 ------- 0 0.0 3.0 16 16
r 0.093 2 3 cbr 500 ------- 0 0.0 3.0 11 11
+ 0.095 0 1 cbr 500 ------- 0 0.0 3.0 19 19
- 0.095 0 1 cbr 500 ------- 0 0.0 3.0 19 19
r 0.095333 1 2 cbr 500 ------- 0 0.0 3.0 14 14
+ 0.095333 2 3 cbr 500 ------- 0 0.0 3.0 14 14
- 0.095333 2 3 cbr 500 ------- 0 0.0 3.0 14 14
r 0.097667 0 1 cbr 500 ------- 0 0.0 3.0 17 17
+ 0.097667 1 2 cbr 500 ------- 0 0.0 3.0 17 17
- 0.097667 1 2 cbr 500 ------- 0 0.0 3.0 17 17
r 0.098 2 3 cbr 500 ------- 0 0.0 3.0 12 12
+ 0.1 0 1 cbr 500 ------- 0 0.0 3.0 20 20
- 0.1 0 1 cbr 500 ------- 0 0.0 3.0 20 20
r 0.100333 1 2 cbr 500 ------- 0 0.0 3.0 15 15
+ 0.100333 2 3 cbr 500 ------- 0 0.0 3.0 15 15
- 0.100333 2 3 cbr 500 ------- 0 0.0 3.0 15 15
r 0.102667 0 1 cbr 500 ------- 0 0.0 3.0 18 18
+ 0.102667 1 2 cbr 500 ------- 0 0.0 3.0 18 18
- 0.102667 1 2 cbr 500 ------- 0 0.0 3.0 18 18
r 0.103 2 3 cbr 500 ------- 0 0.0 3.0 13 13
+ 0.105 0 1 cbr 500 ------- 0 0.0 3.0 21 21
- 0.105 0 1 cbr 500 ------- 0 0.0 3.0 21 21
r 0.105333 1 2 cbr 500 ------- 0 0.0 3.0 16 16
+ 0.105333 2 3 cbr 500 ------- 0 0.0 3.0 16 16
- 0.105333 2 3 cbr 500 ------- 0 0.0 3.0 16 16
r 0.107667 0 1 cbr 500 ------- 0 0.0 3.0 19 19
+ 0.107667 1 2 cbr 500 ------- 0 0.0 3.0 19 19
- 0.107667 1 2 cbr 500 ------- 0 0.0 3.0 19 19
r 0.108 2 3 cbr 500 ------- 0 0.0 3.0 14 14
+ 0.11 0 1 cbr 500 ------- 0 0.0 3.0 22 22
- 0.11 0 1 cbr 500 ------- 0 0.0 3.0 22 22
r 0.110333 1 2 cbr 500 ------- 0 0.0 3.0 17 17
+ 0.110333 2 3 cbr 500 ------- 0 0.0 3.0 17 17
- 0.110333 2 3 cbr 500 ------- 0 0.0 3.0 17 17
r 0.112667 0 1 cbr 500 ------- 0 0.0 3.0 20 20
+ 0.112667 1 2 cbr 500 ------- 0 0.0 3.0 20 20
- 0.112667 1 2 cbr 500 ------- 0 0.0 3.0 20 20
r 0.113 2 3 cbr 500 ------- 0 0.0 3.0 15 15
+ 0.115 0 1 cbr 500 ------- 0 0.0 3.0 23 23
- 0.115 0 1 cbr 500 ------- 0 0.0 3.0 23 23
r 0.115333 1 2 cbr 500 ------- 0 0.0 3.0 18 18
+ 0.115333 2 3 cbr 500 ------- 0 0.0 3.0 18 18
- 0.115333 2 3 cbr 500 ------- 0 0.0 3.0 18 18
r 0.117667 0 1 cbr 500 ------- 0 0.0 3.0 21 21
+ 0.117667 1 2 cbr 500 ------- 0 0.0 3.0 21 21
- 0.117667 1 2 cbr 500 ------- 0 0.0 3.0 21 21
r 0.118 2 3 cbr 500 ------- 0 0.0 3.0 16 16
+ 0.12 0 1 cbr 500 ------- 0 0.0 3.0 24 24
- 0.12 0 1 cbr 500 ------- 0 0.0 3.0 24 24
r 0.120333 1 2 cbr 500 ------- 0 0.0 3.0 19 19
+ 0.120333 2 3 cbr 500 ------- 0 0.0 3.0 19 19
- 0.120333 2 3 cbr 500 ------- 0 0.0 3.0 19 19
r 0.122667 0 1 cbr 500 ------- 0 0.0 3.0 22 22
+ 0.122667 1 2 cbr 500 ------- 0 0.0 3.0 22 22
- 0.122667 1 2 cbr 500 ------- 0 0.0 3.0 22 22
r 0.123 2 3 cbr 500 ------- 0 0.0 3.0 17 17
+ 0.125 0 1 cbr 500 ------- 0 0.0 3.0 25 25
- 0.125 0 1 cbr 500 ------- 0 0.0 3.0 25 25
r 0.125333 1 2 cbr 500 ------- 0 0.0 3.0 20 20
+ 0.125333 2 3 cbr 500 ------- 0 0.0 3.0 20 20
- 0.125333 2 3 cbr 500 ------- 0 0.0 3.0 20 20
r 0.127667 0 1 cbr 500 ------- 0 0.0 3.0 23 23
+ 0.127667 1 2 cbr 500 ------- 0 0.0 3.0 23 23
- 0.127667 1 2 cbr 500 ------- 0 0.0 3.0 23 23
r 0.128 2 3 cbr 500 ------- 0 0.0 3.0 18 18
+ 0.13 0 1 cbr 500 ------- 0 0.0 3.0 26 26
- 0.13 0 1 cbr 500 ------- 0 0.0 3.0 26 26
r 0.130333 1 2 cbr 500 ------- 0 0.0 3.0 21 21
+ 0.130333 2 3 cbr 500 ------- 0 0.0 3.0 21 21
- 0.130333 2 3 cbr 500 ------- 0 0.0 3.0 21 21
r 0.132667 0 1 cbr 500 ------- 0 0.0 3.0 24 24
+ 0.132667 1 2 cbr 500 ------- 0 0.0 3.0 24 24
- 0.132667 1 2 cbr 500 ------- 0 0.0 3.0 24 24
r 0.133 2 3 cbr 500 ------- 0 0.0 3.0 19 19
+ 0.135 0 1 cbr 500 ------- 0 0.0 3.0 27 27
- 0.135 0 1 cbr 500 ------- 0 0.0 3.0 27 27
r 0.135333 1 2 cbr 500 ------- 0 0.0 3.0 22 22
+ 0.135333 2 3 cbr 500 ------- 0 0.0 3.0 22 22
- 0.135333 2 3 cbr 500 ------- 0 0.0 3.0 22 22
r 0.137667 0 1 cbr 500 ------- 0 0.0 3.0 25 25
+ 0.137667 1 2 cbr 500 ------- 0 0.0 3.0 25 25
- 0.137667 1 2 cbr 500 ------- 0 0.0 3.0 25 25
r 0.138 2 3 cbr 500 ------- 0 0.0 3.0 20 20
+ 0.14 0 1 cbr 500 ------- 0 0.0 3.0 28 28
- 0.14 0 1 cbr 500 ------- 0 0.0 3.0 28 28
r 0.140333 1 2 cbr 500 ------- 0 0.0 3.0 23 23
+ 0.140333 2 3 cbr 500 ------- 0 0.0 3.0 23 23
- 0.140333 2 3 cbr 500 ------- 0 0.0 3.0 23 23
r 0.142667 0 1 cbr 500 ------- 0 0.0 3.0 26 26
+ 0.142667 1 2 cbr 500 ------- 0 0.0 3.0 26 26
- 0.142667 1 2 cbr 500 ------- 0 0.0 3.0 26 26
r 0.143 2 3 cbr 500 ------- 0 0.0 3.0 21 21
+ 0.145 0 1 cbr 500 ------- 0 0.0 3.0 29 29
- 0.145 0 1 cbr 500 ------- 0 0.0 3.0 29 29
r 0.145333 1 2 cbr 500 ------- 0 0.0 3.0 24 24
+ 0.145333 2 3 cbr 500 ------- 0 0.0 3.0 24 24
- 0.145333 2 3 cbr 500 ------- 0 0.0 3.0 24 24
r 0.147667 0 1 cbr 500 ------- 0 0.0 3.0 27 27
+ 0.147667 1 2 cbr 500 ------- 0 0.0 3.0 27 27
- 0.147667 1 2 cbr 500 ------- 0 0.0 3.0 27 27
r 0.148 2 3 cbr 500 ------- 0 0.0 3.0 22 22
+ 0.15 0 1 cbr 500 ------- 0 0.0 3.0 30 30
- 0.15 0 1 cbr 500 ------- 0 0.0 3.0 30 30
r 0.150333 1 2 cbr 500 ------- 0 0.0 3.0 25 25
+ 0.150333 2 3 cbr 500 ------- 0 0.0 3.0 25 25
- 0.150333 2 3 cbr 500 ------- 0 0.0 3.0 25 25
r 0.152667 0 1 cbr 500 ------- 0 0.0 3.0 28 28
+ 0.152667 1 2 cbr 500 ------- 0 0.0 3.0 28 28
- 0.152667 1 2 cbr 500 ------- 0 0.0 3.0 28 28
r 0.153 2 3 cbr 500 ------- 0 0.0 3.0 23 23
+ 0.155 0 1 cbr 500 ------- 0 0.0 3.0 31 31
- 0.155 0 1 cbr 500 ------- 0 0.0 3.0 31 31
r 0.155333 1 2 cbr 500 ------- 0 0.0 3.0 26 26
+ 0.155333 2 3 cbr 500 ------- 0 0.0 3.0 26 26
- 0.155333 2 3 cbr 500 ------- 0 0.0 3.0 26 26
r 0.157667 0 1 cbr 500 ------- 0 0.0 3.0 29 29
+ 0.157667 1 2 cbr 500 ------- 0 0.0 3.0 29 29
- 0.157667 1 2 cbr 500 ------- 0 0.0 3.0 29 29
r 0.158 2 3 cbr 500 ------- 0 0.0 3.0 24 24
+ 0.16 0 1 cbr 500 ------- 0 0.0 3.0 32 32
- 0.16 0 1 cbr 500 ------- 0 0.0 3.0 32 32
r 0.160333 1 2 cbr 500 ------- 0 0.0 3.0 27 27
+ 0.160333 2 3 cbr 500 ------- 0 0.0 3.0 27 27
- 0.160333 2 3 cbr 500 ------- 0 0.0 3.0 27 27
r 0.162667 0 1 cbr 500 ------- 0 0.0 3.0 30 30
+ 0.162667 1 2 cbr 500 ------- 0 0.0 3.0 30 30
- 0.162667 1 2 cbr 500 ------- 0 0.0 3.0 30 30
r 0.163 2 3 cbr 500 ------- 0 0.0 3.0 25 25
+ 0.165 0 1 cbr 500 ------- 0 0.0 3.0 33 33
- 0.165 0 1 cbr 500 ------- 0 0.0 3.0 33 33
r 0.165333 1 2 cbr 500 ------- 0 0.0 3.0 28 28
+ 0.165333 2 3 cbr 500 ------- 0 0.0 3.0 28 28
- 0.165333 2 3 cbr 500 ------- 0 0.0 3.0 28 28
r 0.167667 0 1 cbr 500 ------- 0 0.0 3.0 31 31
+ 0.167667 1 2 cbr 500 ------- 0 0.0 3.0 31 31
- 0.167667 1 2 cbr 500 ------- 0 0.0 3.0 31 31
r 0.168 2 3 cbr 500 ------- 0 0.0 3.0 26 26
+ 0.17 0 1 cbr 500 ------- 0 0.0 3.0 34 34
- 0.17 0 1 cbr 500 ------- 0 0.0 3.0 34 34
r 0.170333 1 2 cbr 500 ------- 0 0.0 3.0 29 29
+ 0.170333 2 3 cbr 500 ------- 0 0.0 3.0 29 29
- 0.170333 2 3 cbr 500 ------- 0 0.0 3.0 29 29
r 0.172667 0 1 cbr 500 ------- 0 0.0 3.0 32 32
+ 0.172667 1 2 cbr 500 ------- 0 0.0 3.0 32 32
- 0.172667 1 2 cbr 500 ------- 0 0.0 3.0 32 32
r 0.173 2 3 cbr 500 ------- 0 0.0 3.0 27 27
+ 0.175 0 1 cbr 500 ------- 0 0.0 3.0 35 35
- 0.175 0 1 cbr 500 ------- 0 0.0 3.0 35 35
r 0.175333 1 2 cbr 500 ------- 0 0.0 3.0 30 30
+ 0.175333 2 3 cbr 500 ------- 0 0.0 3.0 30 30
- 0.175333 2 3 cbr 500 ------- 0 0.0 3.0 30 30
r 0.177667 0 1 cbr 500 ------- 0 0.0 3.0 33 33
+ 0.177667 1 2 cbr 500 ------- 0 0.0 3.0 33 33
- 0.177667 1 2 cbr 500 ------- 0 0.0 3.0 33 33
r 0.178 2 3 cbr 500 ------- 0 0.0 3.0 28 28
+ 0.18 0 1 cbr 500 ------- 0 0.0 3.0 36 36
- 0.18 0 1 cbr 500 ------- 0 0.0 3.0 36 36
r 0.180333 1 2 cbr 500 ------- 0 0.0 3.0 31 31
+ 0.180333 2 3 cbr 500 ------- 0 0.0 3.0 31 31
- 0.180333 2 3 cbr 500 ------- 0 0.0 3.0 31 31
r 0.182667 0 1 cbr 500 ------- 0 0.0 3.0 34 34
+ 0.182667 1 2 cbr 500 ------- 0 0.0 3.0 34 34
- 0.182667 1 2 cbr 500 ------- 0 0.0 3.0 34 34
r 0.183 2 3 cbr 500 ------- 0 0.0 3.0 29 29
+ 0.185 0 1 cbr 500 ------- 0 0.0 3.0 37 37
- 0.185 0 1 cbr 500 ------- 0 0.0 3.0 37 37
r 0.185333 1 2 cbr 500 ------- 0 0.0 3.0 32 32
+ 0.185333 2 3 cbr 500 ------- 0 0.0 3.0 32 32
- 0.185333 2 3 cbr 500 ------- 0 0.0 3.0 32 32
r 0.187667 0 1 cbr 500 ------- 0 0.0 3.0 35 35
+ 0.187667 1 2 cbr 500 ------- 0 0.0 3.0 35 35
- 0.187667 1 2 cbr 500 ------- 0 0.0 3.0 35 35
r 0.188 2 3 cbr 500 ------- 0 0.0 3.0 30 30
+ 0.19 0 1 cbr 500 ------- 0 0.0 3.0 38 38
- 0.19 0 1 cbr 500 ------- 0 0.0 3.0 38 38
r 0.190333 1 2 cbr 500 ------- 0 0.0 3.0 33 33
+ 0.190333 2 3 cbr 500 ------- 0 0.0 3.0 33 33
- 0.190333 2 3 cbr 500 ------- 0 0.0 3.0 33 33
r 0.192667 0 1 cbr 500 ------- 0 0.0 3.0 36 36
+ 0.192667 1 2 cbr 500 ------- 0 0.0 3.0 36 36
- 0.192667 1 2 cbr 500 ------- 0 0.0 3.0 36 36
r 0.193 2 3 cbr 500 ------- 0 0.0 3.0 31 31
+ 0.195 0 1 cbr 500 ------- 0 0.0 3.0 39 39
- 0.195 0 1 cbr 500 ------- 0 0.0 3.0 39 39
r 0.195333 1 2 cbr 500 ------- 0 0.0 3.0 34 34
+ 0.195333 2 3 cbr 500 ------- 0 0.0 3.0 34 34
- 0.195333 2 3 cbr 500 ------- 0 0.0 3.0 34 34
r 0.197667 0 1 cbr 500 ------- 0 0.0 3.0 37 37
+ 0.197667 1 2 cbr 500 ------- 0 0.0 3.0 37 37
- 0.197667 1 2 cbr 500 ------- 0 0.0 3.0 37 37
r 0.198 2 3 cbr 500 ------- 0 0.0 3.0 32 32
+ 0.2 0 1 cbr 500 ------- 0 0.0 3.0 40 40
- 0.2 0 1 cbr 500 ------- 0 0.0 3.0 40 40
r 0.200333 1 2 cbr 500 ------- 0 0.0 3.0 35 35
+ 0.200333 2 3 cbr 500 ------- 0 0.0 3.0 35 35
- 0.200333 2 3 cbr 500 ------- 0 0.0 3.0 35 35
r 0.202667 0 1 cbr 500 ------- 0 0.0 3.0 38 38
+ 0.202667 1 2 cbr 500 ------- 0 0.0 3.0 38 38
- 0.202667 1 2 cbr 500 ------- 0 0.0 3.0 38 38
r 0.203 2 3 cbr 500 ------- 0 0.0 3.0 33 33
+ 0.205 0 1 cbr 500 ------- 0 0.0 3.0 41 41
- 0.205 0 1 cbr 500 ------- 0 0.0 3.0 41 41
r 0.205333 1 2 cbr 500 ------- 0 0.0 3.0 36 36
+ 0.205333 2 3 cbr 500 ------- 0 0.0 3.0 36 36
- 0.205333 2 3 cbr 500 ------- 0 0.0 3.0 36 36
r 0.207667 0 1 cbr 500 ------- 0 0.0 3.0 39 39
+ 0.207667 1 2 cbr 500 ------- 0 0.0 3.0 39 39
- 0.207667 1 2 cbr 500 ------- 0 0.0 3.0 39 39
r 0.208 2 3 cbr 500 ------- 0 0.0 3.0 34 34
+ 0.21 0 1 cbr 500 ------- 0 0.0 3.0 42 42
- 0.21 0 1 cbr 500 ------- 0 0.0 3.0 42 42
r 0.210333 1 2 cbr 500 ------- 0 0.0 3.0 37 37
+ 0.210333 2 3 cbr 500 ------- 0 0.0 3.0 37 37
- 0.210333 2 3 cbr 500 ------- 0 0.0 3.0 37 37
r 0.212667 0 1 cbr 500 ------- 0 0.0 3.0 40 40
+ 0.212667 1 2 cbr 500 ------- 0 0.0 3.0 40 40
- 0.212667 1 2 cbr 500 ------- 0 0.0 3.0 40 40
r 0.213 2 3 cbr 500 ------- 0 0.0 3.0 35 35
+ 0.215 0 1 cbr 500 ------- 0 0.0 3.0 43 43
- 0.215 0 1 cbr 500 ------- 0 0.0 3.0 43 43
r 0.215333 1 2 cbr 500 ------- 0 0.0 3.0 38 38
+ 0.215333 2 3 cbr 500 ------- 0 0.0 3.0 38 38
- 0.215333 2 3 cbr 500 ------- 0 0.0 3.0 38 38
r 0.217667 0 1 cbr 500 ------- 0 0.0 3.0 41 41
+ 0.217667 1 2 cbr 500 ------- 0 0.0 3.0 41 41
- 0.217667 1 2 cbr 500 ------- 0 0.0 3.0 41 41
r 0.218 2 3 cbr 500 ------- 0 0.0 3.0 36 36
+ 0.22 0 1 cbr 500 ------- 0 0.0 3.0 44 44
- 0.22 0 1 cbr 500 ------- 0 0.0 3.0 44 44
r 0.220333 1 2 cbr 500 ------- 0 0.0 3.0 39 39
+ 0.220333 2 3 cbr 500 ------- 0 0.0 3.0 39 39
- 0.220333 2 3 cbr 500 ------- 0 0.0 3.0 39 39
r 0.222667 0 1 cbr 500 ------- 0 0.0 3.0 42 42
+ 0.222667 1 2 cbr 500 ------- 0 0.0 3.0 42 42
- 0.222667 1 2 cbr 500 ------- 0 0.0 3.0 42 42
r 0.223 2 3 cbr 500 ------- 0 0.0 3.0 37 37
+ 0.225 0 1 cbr 500 ------- 0 0.0 3.0 45 45
- 0.225 0 1 cbr 500 ------- 0 0.0 3.0 45 45
r 0.225333 1 2 cbr 500 ------- 0 0.0 3.0 40 40
+ 0.225333 2 3 cbr 500 ------- 0 0.0 3.0 40 40
- 0.225333 2 3 cbr 500 ------- 0 0.0 3.0 40 40
r 0.227667 0 1 cbr 500 ------- 0 0.0 3.0 43 43
+ 0.227667 1 2 cbr 500 ------- 0 0.0 3.0 43 43
- 0.227667 1 2 cbr 500 ------- 0 0.0 3.0 43 43
r 0.228 2 3 cbr 500 ------- 0 0.0 3.0 38 38
+ 0.23 0 1 cbr 500 ------- 0 0.0 3.0 46 46
- 0.23 0 1 cbr 500 ------- 0 0.0 3.0 46 46
r 0.230333 1 2 cbr 500 ------- 0 0.0 3.0 41 41
+ 0.230333 2 3 cbr 500 ------- 0 0.0 3.0 41 41
- 0.230333 2 3 cbr 500 ------- 0 0.0 3.0 41 41
r 0.232667 0 1 cbr 500 ------- 0 0.0 3.0 44 44
+ 0.232667 1 2 cbr 500 ------- 0 0.0 3.0 44 44
- 0.232667 1 2 cbr 500 ------- 0 0.0 3.0 44 44
r 0.233 2 3 cbr 500 ------- 0 0.0 3.0 39 39
+ 0.235 0 1 cbr 500 ------- 0 0.0 3.0 47 47
- 0.235 0 1 cbr 500 ------- 0 0.0 3.0 47 47
r 0.235333 1 2 cbr 500 ------- 0 0.0 3.0 42 42
+ 0.235333 2 3 cbr 500 ------- 0 0.0 3.0 42 42
- 0.235333 2 3 cbr 500 ------- 0 0.0 3.0 42 42
r 0.237667 0 1 cbr 500 ------- 0 0.0 3.0 45 45
+ 0.237667 1 2 cbr 500 ------- 0 0.0 3.0 45 45
- 0.237667 1 2 cbr 500 ------- 0 0.0 3.0 45 45
r 0.238 2 3 cbr 500 ------- 0 0.0 3.0 40 40
+ 0.24 0 1 cbr 500 ------- 0 0.0 3.0 48 48
- 0.24 0 1 cbr 500 ------- 0 0.0 3.0 48 48
r 0.240333 1 2 cbr 500 ------- 0 0.0 3.0 43 43
+ 0.240333 2 3 cbr 500 ------- 0 0.0 3.0 43 43
- 0.240333 2 3 cbr 500 ------- 0 0.0 3.0 43 43
r 0.242667 0 1 cbr 500 ------- 0 0.0 3.0 46 46
+ 0.242667 1 2 cbr 500 ------- 0 0.0 3.0 46 46
- 0.242667 1 2 cbr 500 ------- 0 0.0 3.0 46 46
r 0.243 2 3 cbr 500 ------- 0 0.0 3.0 41 41
+ 0.245 0 1 cbr 500 ------- 0 0.0 3.0 49 49
- 0.245 0 1 cbr 500 ------- 0 0.0 3.0 49 49
r 0.245333 1 2 cbr 500 ------- 0 0.0 3.0 44 44
+ 0.245333 2 3 cbr 500 ------- 0 0.0 3.0 44 44
- 0.245333 2 3 cbr 500 ------- 0 0.0 3.0 44 44
r 0.247667 0 1 cbr 500 ------- 0 0.0 3.0 47 47
+ 0.247667 1 2 cbr 500 ------- 0 0.0 3.0 47 47
- 0.247667 1 2 cbr 500 ------- 0 0.0 3.0 47 47
r 0.248 2 3 cbr 500 ------- 0 0.0 3.0 42 42
+ 0.25 0 1 cbr 500 ------- 0 0.0 3.0 50 50
- 0.25 0 1 cbr 500 ------- 0 0.0 3.0 50 50
r 0.250333 1 2 cbr 500 ------- 0 0.0 3.0 45 45
+ 0.250333 2 3 cbr 500 ------- 0 0.0 3.0 45 45
- 0.250333 2 3 cbr 500 ------- 0 0.0 3.0 45 45
r 0.252667 0 1 cbr 500 ------- 0 0.0 3.0 48 48
+ 0.252667 1 2 cbr 500 ------- 0 0.0 3.0 48 48
- 0.252667 1 2 cbr 500 ------- 0 0.0 3.0 48 48
r 0.253 2 3 cbr 500 ------- 0 0.0 3.0 43 43
+ 0.255 0 1 cbr 500 ------- 0 0.0 3.0 51 51
- 0.255 0 1 cbr 500 ------- 0 0.0 3.0 51 51
r 0.255333 1 2 cbr 500 ------- 0 0.0 3.0 46 46
+ 0.255333 2 3 cbr 500 ------- 0 0.0 3.0 46 46
- 0.255333 2 3 cbr 500 ------- 0 0.0 3.0 46 46
r 0.257667 0 1 cbr 500 ------- 0 0.0 3.0 49 49
+ 0.257667 1 2 cbr 500 ------- 0 0.0 3.0 49 49
- 0.257667 1 2 cbr 500 ------- 0 0.0 3.0 49 49
r 0.258 2 3 cbr 500 ------- 0 0.0 3.0 44 44
+ 0.26 0 1 cbr 500 ------- 0 0.0 3.0 52 52
- 0.26 0 1 cbr 500 ------- 0 0.0 3.0 52 52
r 0.260333 1 2 cbr 500 ------- 0 0.0 3.0 47 47
+ 0.260333 2 3 cbr 500 ------- 0 0.0 3.0 47 47
- 0.260333 2 3 cbr 500 ------- 0 0.0 3.0 47 47
r 0.262667 0 1 cbr 500 ------- 0 0.0 3.0 50 50
+ 0.262667 1 2 cbr 500 ------- 0 0.0 3.0 50 50
- 0.262667 1 2 cbr 500 ------- 0 0.0 3.0 50 50
r 0.263 2 3 cbr 500 ------- 0 0.0 3.0 45 45
+ 0.265 0 1 cbr 500 ------- 0 0.0 3.0 53 53
- 0.265 0 1 cbr 500 ------- 0 0.0 3.0 53 53
r 0.265333 1 2 cbr 500 ------- 0 0.0 3.0 48 48
+ 0.265333 2 3 cbr 500 ------- 0 0.0 3.0 48 48
- 0.265333 2 3 cbr 500 ------- 0 0.0 3.0 48 48
r 0.267667 0 1 cbr 500 ------- 0 0.0 3.0 51 51
+ 0.267667 1 2 cbr 500 ------- 0 0.0 3.0 51 51
- 0.267667 1 2 cbr 500 ------- 0 0.0 3.0 51 51
r 0.268 2 3 cbr 500 ------- 0 0.0 3.0 46 46
+ 0.27 0 1 cbr 500 ------- 0 0.0 3.0 54 54
- 0.27 0 1 cbr 500 ------- 0 0.0 3.0 54 54
r 0.270333 1 2 cbr 500 ------- 0 0.0 3.0 49 49
+ 0.270333 2 3 cbr 500 ------- 0 0.0 3.0 49 49
- 0.270333 2 3 cbr 500 ------- 0 0.0 3.0 49 49
r 0.272667 0 1 cbr 500 ------- 0 0.0 3.0 52 52
+ 0.272667 1 2 cbr 500 ------- 0 0.0 3.0 52 52
- 0.272667 1 2 cbr 500 ------- 0 0.0 3.0 52 52
r 0.273 2 3 cbr 500 ------- 0 0.0 3.0 47 47
+ 0.275 0 1 cbr 500 ------- 0 0.0 3.0 55 55
- 0.275 0 1 cbr 500 ------- 0 0.0 3.0 55 55
r 0.275333 1 2 cbr 500 ------- 0 0.0 3.0 50 50
+ 0.275333 2 3 cbr 500 ------- 0 0.0 3.0 50 50
- 0.275333 2 3 cbr 500 ------- 0 0.0 3.0 50 50
r 0.277667 0 1 cbr 500 ------- 0 0.0 3.0 53 53
+ 0.277667 1 2 cbr 500 ------- 0 0.0 3.0 53 53
- 0.277667 1 2 cbr 500 ------- 0 0.0 3.0 53 53
r 0.278 2 3 cbr 500 ------- 0 0.0 3.0 48 48
+ 0.28 0 1 cbr 500 ------- 0 0.0 3.0 56 56
- 0.28 0 1 cbr 500 ------- 0 0.0 3.0 56 56
r 0.280333 1 2 cbr 500 ------- 0 0.0 3.0 51 51
+ 0.280333 2 3 cbr 500 ------- 0 0.0 3.0 51 51
- 0.280333 2 3 cbr 500 ------- 0 0.0 3.0 51 51
r 0.282667 0 1 cbr 500 ------- 0 0.0 3.0 54 54
+ 0.282667 1 2 cbr 500 ------- 0 0.0 3.0 54 54
- 0.282667 1 2 cbr 500 ------- 0 0.0 3.0 54 54
r 0.283 2 3 cbr 500 ------- 0 0.0 3.0 49 49
+ 0.285 0 1 cbr 500 ------- 0 0.0 3.0 57 57
- 0.285 0 1 cbr 500 ------- 0 0.0 3.0 57 57
r 0.285333 1 2 cbr 500 ------- 0 0.0 3.0 52 52
+ 0.285333 2 3 cbr 500 ------- 0 0.0 3.0 52 52
- 0.285333 2 3 cbr 500 ------- 0 0.0 3.0 52 52
r 0.287667 0 1 cbr 500 ------- 0 0.0 3.0 55 55
+ 0.287667 1 2 cbr 500 ------- 0 0.0 3.0 55 55
- 0.287667 1 2 cbr 500 ------- 0 0.0 3.0 55 55
r 0.288 2 3 cbr 500 ------- 0 0.0 3.0 50 50
+ 0.29 0 1 cbr 500 ------- 0 0.0 3.0 58 58
- 0.29 0 1 cbr 500 ------- 0 0.0 3.0 58 58
r 0.290333 1 2 cbr 500 ------- 0 0.0 3.0 53 53
+ 0.290333 2 3 cbr 500 ------- 0 0.0 3.0 53 53
- 0.290333 2 3 cbr 500 ------- 0 0.0 3.0 53 53
r 0.292667 0 1 cbr 500 ------- 0 0.0 3.0 56 56
+ 0.292667 1 2 cbr 500 ------- 0 0.0 3.0 56 56
- 0.292667 1 2 cbr 500 ------- 0 0.0 3.0 56 56
r 0.293 2 3 cbr 500 ------- 0 0.0 3.0 51 51
+ 0.295 0 1 cbr 500 ------- 0 0.0 3.0 59 59
- 0.295 0 1 cbr 500 ------- 0 0.0 3.0 59 59
r 0.295333 1 2 cbr 500 ------- 0 0.0 3.0 54 54
+ 0.295333 2 3 cbr 500 ------- 0 0.0 3.0 54 54
- 0.295333 2 3 cbr 500 ------- 0 0.0 3.0 54 54
r 0.297667 0 1 cbr 500 ------- 0 0.0 3.0 57 57
+ 0.297667 1 2 cbr 500 ------- 0 0.0 3.0 57 57
- 0.297667 1 2 cbr 500 ------- 0 0.0 3.0 57 57
r 0.298 2 3 cbr 500 ------- 0 0.0 3.0 52 52
+ 0.3 0 1 cbr 500 ------- 0 0.0 3.0 60 60
- 0.3 0 1 cbr 500 ------- 0 0.0 3.0 60 60
r 0.300333 1 2 cbr 500 ------- 0 0.0 3.0 55 55
+ 0.300333 2 3 cbr 500 ------- 0 0.0 3.0 55 55
- 0.300333 2 3 cbr 500 ------- 0 0.0 3.0 55 55
r 0.302667 0 1 cbr 500 ------- 0 0.0 3.0 58 58
+ 0.302667 1 2 cbr 500 ------- 0 0.0 3.0 58 58
- 0.302667 1 2 cbr 500 ------- 0 0.0 3.0 58 58
r 0.303 2 3 cbr 500 ------- 0 0.0 3.0 53 53
+ 0.305 0 1 cbr 500 ------- 0 0.0 3.0 61 61
- 0.305 0 1 cbr 500 ------- 0 0.0 3.0 61 61
r 0.305333 1 2 cbr 500 ------- 0 0.0 3.0 56 56
+ 0.305333 2 3 cbr 500 ------- 0 0.0 3.0 56 56
- 0.305333 2 3 cbr 500 ------- 0 0.0 3.0 56 56
r 0.307667 0 1 cbr 500 ------- 0 0.0 3.0 59 59
+ 0.307667 1 2 cbr 500 ------- 0 0.0 3.0 59 59
- 0.307667 1 2 cbr 500 ------- 0 0.0 3.0 59 59
r 0.308 2 3 cbr 500 ------- 0 0.0 3.0 54 54
+ 0.31 0 1 cbr 500 ------- 0 0.0 3.0 62 62
- 0.31 0 1 cbr 500 ------- 0 0.0 3.0 62 62
r 0.310333 1 2 cbr 500 ------- 0 0.0 3.0 57 57
+ 0.310333 2 3 cbr 500 ------- 0 0.0 3.0 57 57
- 0.310333 2 3 cbr 500 ------- 0 0.0 3.0 57 57
r 0.312667 0 1 cbr 500 ------- 0 0.0 3.0 60 60
+ 0.312667 1 2 cbr 500 ------- 0 0.0 3.0 60 60
- 0.312667 1 2 cbr 500 ------- 0 0.0 3.0 60 60
r 0.313 2 3 cbr 500 ------- 0 0.0 3.0 55 55
+ 0.315 0 1 cbr 500 ------- 0 0.0 3.0 63 63
- 0.315 0 1 cbr 500 ------- 0 0.0 3.0 63 63
r 0.315333 1 2 cbr 500 ------- 0 0.0 3.0 58 58
+ 0.315333 2 3 cbr 500 ------- 0 0.0 3.0 58 58
- 0.315333 2 3 cbr 500 ------- 0 0.0 3.0 58 58
r 0.317667 0 1 cbr 500 ------- 0 0.0 3.0 61 61
+ 0.317667 1 2 cbr 500 ------- 0 0.0 3.0 61 61
- 0.317667 1 2 cbr 500 ------- 0 0.0 3.0 61 61
r 0.318 2 3 cbr 500 ------- 0 0.0 3.0 56 56
+ 0.32 0 1 cbr 500 ------- 0 0.0 3.0 64 64
- 0.32 0 1 cbr 500 ------- 0 0.0 3.0 64 64
r 0.320333 1 2 cbr 500 ------- 0 0.0 3.0 59 59
+ 0.320333 2 3 cbr 500 ------- 0 0.0 3.0 59 59
- 0.320333 2 3 cbr 500 ------- 0 0.0 3.0 59 59
r 0.322667 0 1 cbr 500 ------- 0 0.0 3.0 62 62
+ 0.322667 1 2 cbr 500 ------- 0 0.0 3.0 62 62
- 0.322667 1 2 cbr 500 ------- 0 0.0 3.0 62 62
r 0.323 2 3 cbr 500 ------- 0 0.0 3.0 57 57
+ 0.325 0 1 cbr 500 ------- 0 0.0 3.0 65 65
- 0.325 0 1 cbr 500 ------- 0 0.0 3.0 65 65
r 0.325333 1 2 cbr 500 ------- 0 0.0 3.0 60 60
+ 0.325333 2 3 cbr 500 ------- 0 0.0 3.0 60 60
- 0.325333 2 3 cbr 500 ------- 0 0.0 3.0 60 60
r 0.327667 0 1 cbr 500 ------- 0 0.0 3.0 63 63
+ 0.327667 1 2 cbr 500 ------- 0 0.0 3.0 63 63
- 0.327667 1 2 cbr 500 ------- 0 0.0 3.0 63 63
r 0.328 2 3 cbr 500 ------- 0 0.0 3.0 58 58
+ 0.33 0 1 cbr 500 ------- 0 0.0 3.0 66 66
- 0.33 0 1 cbr 500 ------- 0 0.0 3.0 66 66
r 0.330333 1 2 cbr 500 ------- 0 0.0 3.0 61 61
+ 0.330333 2 3 cbr 500 ------- 0 0.0 3.0 61 61
- 0.330333 2 3 cbr 500 ------- 0 0.0 3.0 61 61
r 0.332667 0 1 cbr 500 ------- 0 0.0 3.0 64 64
+ 0.332667 1 2 cbr 500 ------- 0 0.0 3.0 64 64
- 0.332667 1 2 cbr 500 ------- 0 0.0 3.0 64 64
r 0.333 2 3 cbr 500 ------- 0 0.0 3.0 59 59
+ 0.335 0 1 cbr 500 ------- 0 0.0 3.0 67 67
- 0.335 0 1 cbr 500 ------- 0 0.0 3.0 67 67
r 0.335333 1 2 cbr 500 ------- 0 0.0 3.0 62 62
+ 0.335333 2 3 cbr 500 ------- 0 0.0 3.0 62 62
- 0.335333 2 3 cbr 500 ------- 0 0.0 3.0 62 62
r 0.337667 0 1 cbr 500 ------- 0 0.0 3.0 65 65
+ 0.337667 1 2 cbr 500 ------- 0 0.0 3.0 65 65
- 0.337667 1 2 cbr 500 ------- 0 0.0 3.0 65 65
r 0.338 2 3 cbr 500 ------- 0 0.0 3.0 60 60
+ 0.34 0 1 cbr 500 ------- 0 0.0 3.0 68 68
- 0.34 0 1 cbr 500 ------- 0 0.0 3.0 68 68
r 0.340333 1 2 cbr 500 ------- 0 0.0 3.0 63 63
+ 0.340333 2 3 cbr 500 ------- 0 0.0 3.0 63 63
- 0.340333 2 3 cbr 500 ------- 0 0.0 3.0 63 63
r 0.342667 0 1 cbr 500 ------- 0 0.0 3.0 66 66
+ 0.342667 1 2 cbr 500 ------- 0 0.0 3.0 66 66
- 0.342667 1 2 cbr 500 ------- 0 0.0 3.0 66 66
r 0.343 2 3 cbr 500 ------- 0 0.0 3.0 61 61
+ 0.345 0 1 cbr 500 ------- 0 0.0 3.0 69 69
- 0.345 0 1 cbr 500 ------- 0 0.0 3.0 69 69
r 0.345333 1 2 cbr 500 ------- 0 0.0 3.0 64 64
+ 0.345333 2 3 cbr 500 ------- 0 0.0 3.0 64 64
- 0.345333 2 3 cbr 500 ------- 0 0.0 3.0 64 64
r 0.347667 0 1 cbr 500 ------- 0 0.0 3.0 67 67
+ 0.347667 1 2 cbr 500 ------- 0 0.0 3.0 67 67
- 0.347667 1 2 cbr 500 ------- 0 0.0 3.0 67 67
r 0.348 2 3 cbr 500 ------- 0 0.0 3.0 62 62
+ 0.35 0 1 cbr 500 ------- 0 0.0 3.0 70 70
- 0.35 0 1 cbr 500 ------- 0 0.0 3.0 70 70
r 0.350333 1 2 cbr 500 ------- 0 0.0 3.0 65 65
+ 0.350333 2 3 cbr 500 ------- 0 0.0 3.0 65 65
- 0.350333 2 3 cbr 500 ------- 0 0.0 3.0 65 65
r 0.352667 0 1 cbr 500 ------- 0 0.0 3.0 68 68
+ 0.352667 1 2 cbr 500 ------- 0 0.0 3.0 68 68
- 0.352667 1 2 cbr 500 ------- 0 0.0 3.0 68 68
r 0.353 2 3 cbr 500 ------- 0 0.0 3.0 63 63
+ 0.355 0 1 cbr 500 ------- 0 0.0 3.0 71 71
- 0.355 0 1 cbr 500 ------- 0 0.0 3.0 71 71
r 0.355333 1 2 cbr 500 ------- 0 0.0 3.0 66 66
+ 0.355333 2 3 cbr 500 ------- 0 0.0 3.0 66 66
- 0.355333 2 3 cbr 500 ------- 0 0.0 3.0 66 66
r 0.357667 0 1 cbr 500 ------- 0 0.0 3.0 69 69
+ 0.357667 1 2 cbr 500 ------- 0 0.0 3.0 69 69
- 0.357667 1 2 cbr 500 ------- 0 0.0 3.0 69 69
r 0.358 2 3 cbr 500 ------- 0 0.0 3.0 64 64
+ 0.36 0 1 cbr 500 ------- 0 0.0 3.0 72 72
- 0.36 0 1 cbr 500 ------- 0 0.0 3.0 72 72
r 0.360333 1 2 cbr 500 ------- 0 0.0 3.0 67 67
+ 0.360333 2 3 cbr 500 ------- 0 0.0 3.0 67 67
- 0.360333 2 3 cbr 500 ------- 0 0.0 3.0 67 67
r 0.362667 0 1 cbr 500 ------- 0 0.0 3.0 70 70
+ 0.362667 1 2 cbr 500 ------- 0 0.0 3.0 70 70
- 0.362667 1 2 cbr 500 ------- 0 0.0 3.0 70 70
r 0.363 2 3 cbr 500 ------- 0 0.0 3.0 65 65
+ 0.365 0 1 cbr 500 ------- 0 0.0 3.0 73 73
- 0.365 0 1 cbr 500 ------- 0 0.0 3.0 73 73
r 0.365333 1 2 cbr 500 ------- 0 0.0 3.0 68 68
+ 0.365333 2 3 cbr 500 ------- 0 0.0 3.0 68 68
- 0.365333 2 3 cbr 500 ------- 0 0.0 3.0 68 68
r 0.367667 0 1 cbr 500 ------- 0 0.0 3.0 71 71
+ 0.367667 1 2 cbr 500 ------- 0 0.0 3.0 71 71
- 0.367667 1 2 cbr 500 ------- 0 0.0 3.0 71 71
r 0.368 2 3 cbr 500 ------- 0 0.0 3.0 66 66
+ 0.37 0 1 cbr 500 ------- 0 0.0 3.0 74 74
- 0.37 0 1 cbr 500 ------- 0 0.0 3.0 74 74
r 0.370333 1 2 cbr 500 ------- 0 0.0 3.0 69 69
+ 0.370333 2 3 cbr 500 ------- 0 0.0 3.0 69 69
- 0.370333 2 3 cbr 500 ------- 0 0.0 3.0 69 69
r 0.372667 0 1 cbr 500 ------- 0 0.0 3.0 72 72
+ 0.372667 1 2 cbr 500 ------- 0 0.0 3.0 72 72
- 0.372667 1 2 cbr 500 ------- 0 0.0 3.0 72 72
r 0.373 2 3 cbr 500 ------- 0 0.0 3.0 67 67
+ 0.375 0 1 cbr 500 ------- 0 0.0 3.0 75 75
- 0.375 0 1 cbr 500 ------- 0 0.0 3.0 75 75
r 0.375333 1 2 cbr 500 ------- 0 0.0 3.0 70 70
+ 0.375333 2 3 cbr 500 ------- 0 0.0 3.0 70 70
- 0.375333 2 3 cbr 500 ------- 0 0.0 3.0 70 70
r 0.377667 0 1 cbr 500 ------- 0 0.0 3.0 73 73
+ 0.377667 1 2 cbr 500 ------- 0 0.0 3.0 73 73
- 0.377667 1 2 cbr 500 ------- 0 0.0 3.0 73 73
r 0.378 2 3 cbr 500 ------- 0 0.0 3.0 68 68
+ 0.38 0 1 cbr 500 ------- 0 0.0 3.0 76 76
- 0.38 0 1 cbr 500 ------- 0 0.0 3.0 76 76