+ 0.00017 0 1 rtProtoDV 7 ------- 0 0.2 1.1 -1 1
- 0.00017 0 1 rtProtoDV 7 ------- 0 0.2 1.1 -1 1
+ 0.00017 0 6 rtProtoDV 7 ------- 0 0.2 6.1 -1 2
- 0.00017 0 6 rtProtoDV 7 ------- 0 0.2 6.1 -1 2
+ 0.007102 2 1 rtProtoDV 7 ------- 0 2.2 1.1 -1 4
- 0.007102 2 1 rtProtoDV 7 ------- 0 2.2 1.1 -1 4
+ 0.007102 2 3 rtProtoDV 7 ------- 0 2.2 3.1 -1 5
- 0.007102 2 3 rtProtoDV 7 ------- 0 2.2 3.1 -1 5
r 0.010207 0 1 rtProtoDV 7 ------- 0 0.2 1.1 -1 1
+ 0.010207 1 0 rtProtoDV 7 ------- 0 1.1 0.2 -1 7
- 0.010207 1 0 rtProtoDV 7 ------- 0 1.1 0.2 -1 7
+ 0.010207 1 2 rtProtoDV 7 ------- 0 1.1 2.2 -1 8
- 0.010207 1 2 rtProtoDV 7 ------- 0 1.1 2.2 -1 8
r 0.010207 0 6 rtProtoDV 7 ------- 0 0.2 6.1 -1 2
+ 0.010207 6 0 rtProtoDV 7 ------- 0 6.1 0.2 -1 9
- 0.010207 6 0 rtProtoDV 7 ------- 0 6.1 0.2 -1 9
+ 0.010207 6 5 rtProtoDV 7 ------- 0 6.1 5.1 -1 10
- 0.010207 6 5 rtProtoDV 7 ------- 0 6.1 5.1 -1 10
r 0.01714 2 1 rtProtoDV 7 ------- 0 2.2 1.1 -1 4
+ 0.01714 1 0 rtProtoDV 7 ------- 0 1.1 0.2 -1 12
- 0.01714 1 0 rtProtoDV 7 ------- 0 1.1 0.2 -1 12
+ 0.01714 1 2 rtProtoDV 7 ------- 0 1.1 2.2 -1 13
- 0.01714 1 2 rtProtoDV 7 ------- 0 1.1 2.2 -1 13
r 0.01714 2 3 rtProtoDV 7 ------- 0 2.2 3.1 -1 5
+ 0.01714 3 2 rtProtoDV 7 ------- 0 3.1 2.2 -1 14
- 0.01714 3 2 rtProtoDV 7 ------- 0 3.1 2.2 -1 14
+ 0.01714 3 4 rtProtoDV 7 ------- 0 3.1 4.1 -1 15
- 0.01714 3 4 rtProtoDV 7 ------- 0 3.1 4.1 -1 15
r 0.020244 1 0 rtProtoDV 7 ------- 0 1.1 0.2 -1 7
+ 0.020244 0 1 rtProtoDV 7 ------- 0 0.2 1.1 -1 17
- 0.020244 0 1 rtProtoDV 7 ------- 0 0.2 1.1 -1 17
+ 0.020244 0 6 rtProtoDV 7 ------- 0 0.2 6.1 -1 18
- 0.020244 0 6 rtProtoDV 7 ------- 0 0.2 6.1 -1 18
r 0.020244 1 2 rtProtoDV 7 ------- 0 1.1 2.2 -1 8
+ 0.020244 2 1 rtProtoDV 7 ------- 0 2.2 1.1 -1 19
- 0.020244 2 1 rtProtoDV 7 ------- 0 2.2 1.1 -1 19
+ 0.020244 2 3 rtProtoDV 7 ------- 0 2.2 3.1 -1 20
- 0.020244 2 3 rtProtoDV 7 ------- 0 2.2 3.1 -1 20
r 0.020244 6 0 rtProtoDV 7 ------- 0 6.1 0.2 -1 9
+ 0.020244 0 1 rtProtoDV 7 ------- 0 0.2 1.1 -1 21
+ 0.020244 0 6 rtProtoDV 7 ------- 0 0.2 6.1 -1 22
r 0.020244 6 5 rtProtoDV 7 ------- 0 6.1 5.1 -1 10
+ 0.020244 5 4 rtProtoDV 7 ------- 0 5.1 4.1 -1 23
- 0.020244 5 4 rtProtoDV 7 ------- 0 5.1 4.1 -1 23
+ 0.020244 5 6 rtProtoDV 7 ------- 0 5.1 6.1 -1 24
- 0.020244 5 6 rtProtoDV 7 ------- 0 5.1 6.1 -1 24
- 0.020282 0 1 rtProtoDV 7 ------- 0 0.2 1.1 -1 21
- 0.020282 0 6 rtProtoDV 7 ------- 0 0.2 6.1 -1 22
+ 0.025 0 1 cbr 500 ------- 0 0.0 2.0 5 25
- 0.025 0 1 cbr 500 ------- 0 0.0 2.0 5 25
r 0.027177 1 0 rtProtoDV 7 ------- 0 1.1 0.2 -1 12
+ 0.027177 0 1 rtProtoDV 7 ------- 0 0.2 1.1 -1 26
+ 0.027177 0 6 rtProtoDV 7 ------- 0 0.2 6.1 -1 27
- 0.027177 0 6 rtProtoDV 7 ------- 0 0.2 6.1 -1 27
r 0.027177 1 2 rtProtoDV 7 ------- 0 1.1 2.2 -1 13
r 0.027177 3 2 rtProtoDV 7 ------- 0 3.1 2.2 -1 14
+ 0.027177 2 1 rtProtoDV 7 ------- 0 2.2 1.1 -1 28
- 0.027177 2 1 rtProtoDV 7 ------- 0 2.2 1.1 -1 28
+ 0.027177 2 3 rtProtoDV 7 ------- 0 2.2 3.1 -1 29
- 0.027177 2 3 rtProtoDV 7 ------- 0 2.2 3.1 -1 29
r 0.027177 3 4 rtProtoDV 7 ------- 0 3.1 4.1 -1 15
+ 0.027177 4 3 rtProtoDV 7 ------- 0 4.1 3.1 -1 30
- 0.027177 4 3 rtProtoDV 7 ------- 0 4.1 3.1 -1 30
+ 0.027177 4 5 rtProtoDV 7 ------- 0 4.1 5.1 -1 31
- 0.027177 4 5 rtProtoDV 7 ------- 0 4.1 5.1 -1 31
- 0.027667 0 1 rtProtoDV 7 ------- 0 0.2 1.1 -1 26
+ 0.03 0 1 cbr 500 ------- 0 0.0 2.0 6 32
- 0.03 0 1 cbr 500 ------- 0 0.0 2.0 6 32
r 0.030282 0 1 rtProtoDV 7 ------- 0 0.2 1.1 -1 17
r 0.030282 0 6 rtProtoDV 7 ------- 0 0.2 6.1 -1 18
+ 0.030282 6 0 rtProtoDV 7 ------- 0 6.1 0.2 -1 33
- 0.030282 6 0 rtProtoDV 7 ------- 0 6.1 0.2 -1 33
+ 0.030282 6 5 rtProtoDV 7 ------- 0 6.1 5.1 -1 34
- 0.030282 6 5 rtProtoDV 7 ------- 0 6.1 5.1 -1 34
r 0.030282 2 1 rtProtoDV 7 ------- 0 2.2 1.1 -1 19
r 0.030282 2 3 rtProtoDV 7 ------- 0 2.2 3.1 -1 20
+ 0.030282 3 2 rtProtoDV 7 ------- 0 3.1 2.2 -1 35
- 0.030282 3 2 rtProtoDV 7 ------- 0 3.1 2.2 -1 35
+ 0.030282 3 4 rtProtoDV 7 ------- 0 3.1 4.1 -1 36
- 0.030282 3 4 rtProtoDV 7 ------- 0 3.1 4.1 -1 36
r 0.030282 5 4 rtProtoDV 7 ------- 0 5.1 4.1 -1 23
+ 0.030282 4 3 rtProtoDV 7 ------- 0 4.1 3.1 -1 37
- 0.030282 4 3 rtProtoDV 7 ------- 0 4.1 3.1 -1 37
+ 0.030282 4 5 rtProtoDV 7 ------- 0 4.1 5.1 -1 38
- 0.030282 4 5 rtProtoDV 7 ------- 0 4.1 5.1 -1 38
r 0.030282 5 6 rtProtoDV 7 ------- 0 5.1 6.1 -1 24
+ 0.030282 6 0 rtProtoDV 7 ------- 0 6.1 0.2 -1 39
+ 0.030282 6 5 rtProtoDV 7 ------- 0 6.1 5.1 -1 40
r 0.030319 0 1 rtProtoDV 7 ------- 0 0.2 1.1 -1 21
+ 0.030319 1 0 rtProtoDV 7 ------- 0 1.1 0.2 -1 41
- 0.030319 1 0 rtProtoDV 7 ------- 0 1.1 0.2 -1 41
+ 0.030319 1 2 rtProtoDV 7 ------- 0 1.1 2.2 -1 42
- 0.030319 1 2 rtProtoDV 7 ------- 0 1.1 2.2 -1 42
r 0.030319 0 6 rtProtoDV 7 ------- 0 0.2 6.1 -1 22
- 0.030319 6 0 rtProtoDV 7 ------- 0 6.1 0.2 -1 39
- 0.030319 6 5 rtProtoDV 7 ------- 0 6.1 5.1 -1 40
+ 0.035 0 1 cbr 500 ------- 0 0.0 2.0 7 43
- 0.035 0 1 cbr 500 ------- 0 0.0 2.0 7 43
r 0.037214 0 6 rtProtoDV 7 ------- 0 0.2 6.1 -1 27
+ 0.037214 6 0 rtProtoDV 7 ------- 0 6.1 0.2 -1 44
- 0.037214 6 0 rtProtoDV 7 ------- 0 6.1 0.2 -1 44
+ 0.037214 6 5 rtProtoDV 7 ------- 0 6.1 5.1 -1 45
- 0.037214 6 5 rtProtoDV 7 ------- 0 6.1 5.1 -1 45
r 0.037214 2 1 rtProtoDV 7 ------- 0 2.2 1.1 -1 28
+ 0.037214 1 0 rtProtoDV 7 ------- 0 1.1 0.2 -1 46
- 0.037214 1 0 rtProtoDV 7 ------- 0 1.1 0.2 -1 46
+ 0.037214 1 2 rtProtoDV 7 ------- 0 1.1 2.2 -1 47
- 0.037214 1 2 rtProtoDV 7 ------- 0 1.1 2.2 -1 47
r 0.037214 2 3 rtProtoDV 7 ------- 0 2.2 3.1 -1 29
r 0.037214 4 3 rtProtoDV 7 ------- 0 4.1 3.1 -1 30
+ 0.037214 3 2 rtProtoDV 7 ------- 0 3.1 2.2 -1 48
- 0.037214 3 2 rtProtoDV 7 ------- 0 3.1 2.2 -1 48
+ 0.037214 3 4 rtProtoDV 7 ------- 0 3.1 4.1 -1 49
- 0.037214 3 4 rtProtoDV 7 ------- 0 3.1 4.1 -1 49
r 0.037214 4 5 rtProtoDV 7 ------- 0 4.1 5.1 -1 31
+ 0.037214 5 4 rtProtoDV 7 ------- 0 5.1 4.1 -1 50
- 0.037214 5 4 rtProtoDV 7 ------- 0 5.1 4.1 -1 50
+ 0.037214 5 6 rtProtoDV 7 ------- 0 5.1 6.1 -1 51
- 0.037214 5 6 rtProtoDV 7 ------- 0 5.1 6.1 -1 51
r 0.037667 0 1 cbr 500 ------- 0 0.0 2.0 5 25
+ 0.037667 1 2 cbr 500 ------- 0 0.0 2.0 5 25
- 0.037667 1 2 cbr 500 ------- 0 0.0 2.0 5 25
r 0.037704 0 1 rtProtoDV 7 ------- 0 0.2 1.1 -1 26
+ 0.04 0 1 cbr 500 ------- 0 0.0 2.0 8 52
- 0.04 0 1 cbr 500 ------- 0 0.0 2.0 8 52
r 0.040319 6 0 rtProtoDV 7 ------- 0 6.1 0.2 -1 33
r 0.040319 6 5 rtProtoDV 7 ------- 0 6.1 5.1 -1 34
r 0.040319 3 2 rtProtoDV 7 ------- 0 3.1 2.2 -1 35
r 0.040319 3 4 rtProtoDV 7 ------- 0 3.1 4.1 -1 36
r 0.040319 4 3 rtProtoDV 7 ------- 0 4.1 3.1 -1 37
+ 0.040319 3 2 rtProtoDV 7 ------- 0 3.1 2.2 -1 53
- 0.040319 3 2 rtProtoDV 7 ------- 0 3.1 2.2 -1 53
+ 0.040319 3 4 rtProtoDV 7 ------- 0 3.1 4.1 -1 54
- 0.040319 3 4 rtProtoDV 7 ------- 0 3.1 4.1 -1 54
r 0.040319 4 5 rtProtoDV 7 ------- 0 4.1 5.1 -1 38
r 0.040356 1 0 rtProtoDV 7 ------- 0 1.1 0.2 -1 41
r 0.040356 1 2 rtProtoDV 7 ------- 0 1.1 2.2 -1 42
+ 0.040356 2 1 rtProtoDV 7 ------- 0 2.2 1.1 -1 55
- 0.040356 2 1 rtProtoDV 7 ------- 0 2.2 1.1 -1 55
+ 0.040356 2 3 rtProtoDV 7 ------- 0 2.2 3.1 -1 56
- 0.040356 2 3 rtProtoDV 7 ------- 0 2.2 3.1 -1 56
r 0.040356 6 0 rtProtoDV 7 ------- 0 6.1 0.2 -1 39
+ 0.040356 0 1 rtProtoDV 7 ------- 0 0.2 1.1 -1 57
+ 0.040356 0 6 rtProtoDV 7 ------- 0 0.2 6.1 -1 58
- 0.040356 0 6 rtProtoDV 7 ------- 0 0.2 6.1 -1 58
r 0.040356 6 5 rtProtoDV 7 ------- 0 6.1 5.1 -1 40
- 0.042667 0 1 rtProtoDV 7 ------- 0 0.2 1.1 -1 57
r 0.042667 0 1 cbr 500 ------- 0 0.0 2.0 6 32
+ 0.042667 1 2 cbr 500 ------- 0 0.0 2.0 6 32
- 0.042667 1 2 cbr 500 ------- 0 0.0 2.0 6 32
+ 0.044061 3 2 rtProtoDV 7 ------- 0 3.1 2.2 -1 59
- 0.044061 3 2 rtProtoDV 7 ------- 0 3.1 2.2 -1 59
+ 0.044061 3 4 rtProtoDV 7 ------- 0 3.1 4.1 -1 60
- 0.044061 3 4 rtProtoDV 7 ------- 0 3.1 4.1 -1 60
+ 0.045 0 1 cbr 500 ------- 0 0.0 2.0 9 61
- 0.045 0 1 cbr 500 ------- 0 0.0 2.0 9 61
r 0.047252 6 0 rtProtoDV 7 ------- 0 6.1 0.2 -1 44
r 0.047252 6 5 rtProtoDV 7 ------- 0 6.1 5.1 -1 45
r 0.047252 1 0 rtProtoDV 7 ------- 0 1.1 0.2 -1 46
r 0.047252 1 2 rtProtoDV 7 ------- 0 1.1 2.2 -1 47
r 0.047252 3 2 rtProtoDV 7 ------- 0 3.1 2.2 -1 48
+ 0.047252 2 1 rtProtoDV 7 ------- 0 2.2 1.1 -1 62
- 0.047252 2 1 rtProtoDV 7 ------- 0 2.2 1.1 -1 62
+ 0.047252 2 3 rtProtoDV 7 ------- 0 2.2 3.1 -1 63
- 0.047252 2 3 rtProtoDV 7 ------- 0 2.2 3.1 -1 63
r 0.047252 3 4 rtProtoDV 7 ------- 0 3.1 4.1 -1 49
r 0.047252 5 4 rtProtoDV 7 ------- 0 5.1 4.1 -1 50
r 0.047252 5 6 rtProtoDV 7 ------- 0 5.1 6.1 -1 51
+ 0.047252 6 0 rtProtoDV 7 ------- 0 6.1 0.2 -1 64
- 0.047252 6 0 rtProtoDV 7 ------- 0 6.1 0.2 -1 64
+ 0.047252 6 5 rtProtoDV 7 ------- 0 6.1 5.1 -1 65
- 0.047252 6 5 rtProtoDV 7 ------- 0 6.1 5.1 -1 65
r 0.047667 0 1 cbr 500 ------- 0 0.0 2.0 7 43
+ 0.047667 1 2 cbr 500 ------- 0 0.0 2.0 7 43
- 0.047667 1 2 cbr 500 ------- 0 0.0 2.0 7 43
+ 0.05 0 1 cbr 500 ------- 0 0.0 2.0 10 66
- 0.05 0 1 cbr 500 ------- 0 0.0 2.0 10 66
r 0.050333 1 2 cbr 500 ------- 0 0.0 2.0 5 25
r 0.050356 3 2 rtProtoDV 7 ------- 0 3.1 2.2 -1 53
r 0.050356 3 4 rtProtoDV 7 ------- 0 3.1 4.1 -1 54
r 0.050394 2 1 rtProtoDV 7 ------- 0 2.2 1.1 -1 55
r 0.050394 2 3 rtProtoDV 7 ------- 0 2.2 3.1 -1 56
r 0.050394 0 6 rtProtoDV 7 ------- 0 0.2 6.1 -1 58
r 0.052667 0 1 cbr 500 ------- 0 0.0 2.0 8 52
+ 0.052667 1 2 cbr 500 ------- 0 0.0 2.0 8 52
- 0.052667 1 2 cbr 500 ------- 0 0.0 2.0 8 52
r 0.052704 0 1 rtProtoDV 7 ------- 0 0.2 1.1 -1 57
r 0.054099 3 2 rtProtoDV 7 ------- 0 3.1 2.2 -1 59
r 0.054099 3 4 rtProtoDV 7 ------- 0 3.1 4.1 -1 60
+ 0.055 0 1 cbr 500 ------- 0 0.0 2.0 11 67
- 0.055 0 1 cbr 500 ------- 0 0.0 2.0 11 67
r 0.055333 1 2 cbr 500 ------- 0 0.0 2.0 6 32
r 0.057289 2 1 rtProtoDV 7 ------- 0 2.2 1.1 -1 62
r 0.057289 2 3 rtProtoDV 7 ------- 0 2.2 3.1 -1 63
r 0.057289 6 0 rtProtoDV 7 ------- 0 6.1 0.2 -1 64
r 0.057289 6 5 rtProtoDV 7 ------- 0 6.1 5.1 -1 65
r 0.057667 0 1 cbr 500 ------- 0 0.0 2.0 9 61
+ 0.057667 1 2 cbr 500 ------- 0 0.0 2.0 9 61
- 0.057667 1 2 cbr 500 ------- 0 0.0 2.0 9 61
+ 0.06 0 1 cbr 500 ------- 0 0.0 2.0 12 68
- 0.06 0 1 cbr 500 ------- 0 0.0 2.0 12 68
r 0.060333 1 2 cbr 500 ------- 0 0.0 2.0 7 43
r 0.062667 0 1 cbr 500 ------- 0 0.0 2.0 10 66
+ 0.062667 1 2 cbr 500 ------- 0 0.0 2.0 10 66
- 0.062667 1 2 cbr 500 ------- 0 0.0 2.0 10 66
+ 0.065 0 1 cbr 500 ------- 0 0.0 2.0 13 69
- 0.065 0 1 cbr 500 ------- 0 0.0 2.0 13 69
r 0.065333 1 2 cbr 500 ------- 0 0.0 2.0 8 52
r 0.067667 0 1 cbr 500 ------- 0 0.0 2.0 11 67
+ 0.067667 1 2 cbr 500 ------- 0 0.0 2.0 11 67
- 0.067667 1 2 cbr 500 ------- 0 0.0 2.0 11 67
+ 0.07 0 1 cbr 500 ------- 0 0.0 2.0 14 70
- 0.07 0 1 cbr 500 ------- 0 0.0 2.0 14 70
r 0.070333 1 2 cbr 500 ------- 0 0.0 2.0 9 61
r 0.072667 0 1 cbr 500 ------- 0 0.0 2.0 12 68
+ 0.072667 1 2 cbr 500 ------- 0 0.0 2.0 12 68
- 0.072667 1 2 cbr 500 ------- 0 0.0 2.0 12 68
+ 0.075 0 1 cbr 500 ------- 0 0.0 2.0 15 71
- 0.075 0 1 cbr 500 ------- 0 0.0 2.0 15 71
r 0.075333 1 2 cbr 500 ------- 0 0.0 2.0 10 66
r 0.077667 0 1 cbr 500 ------- 0 0.0 2.0 13 69
+ 0.077667 1 2 cbr 500 ------- 0 0.0 2.0 13 69
- 0.077667 1 2 cbr 500 ------- 0 0.0 2.0 13 69
+ 0.08 0 1 cbr 500 ------- 0 0.0 2.0 16 72
- 0.08 0 1 cbr 500 ------- 0 0.0 2.0 16 72
r 0.080333 1 2 cbr 500 ------- 0 0.0 2.0 11 67
r 0.082667 0 1 cbr 500 ------- 0 0.0 2.0 14 70
+ 0.082667 1 2 cbr 500 ------- 0 0.0 2.0 14 70
- 0.082667 1 2 cbr 500 ------- 0 0.0 2.0 14 70
+ 0.085 0 1 cbr 500 ------- 0 0.0 2.0 17 73
- 0.085 0 1 cbr 500 ------- 0 0.0 2.0 17 73
r 0.085333 1 2 cbr 500 ------- 0 0.0 2.0 12 68
r 0.087667 0 1 cbr 500 ------- 0 0.0 2.0 15 71
+ 0.087667 1 2 cbr 500 ------- 0 0.0 2.0 15 71
- 0.087667 1 2 cbr 500 ------- 0 0.0 2.0 15 71
+ 0.09 0 1 cbr 500 ------- 0 0.0 2.0 18 74
- 0.09 0 1 cbr 500 ------- 0 0.0 2.0 18 74
r 0.090333 1 2 cbr 500 ------- 0 0.0 2.0 13 69
r 0.092667 0 1 cbr 500 ------- 0 0.0 2.0 16 72
+ 0.092667 1 2 cbr 500 ------- 0 0.0 2.0 16 72
- 0.092667 1 2 cbr 500 ------- 0 0.0 2.0 16 72
+ 0.095 0 1 cbr 500 ------- 0 0.0 2.0 19 75
- 0.095 0 1 cbr 500 ------- 0 0.0 2.0 19 75
r 0.095333 1 2 cbr 500 ------- 0 0.0 2.0 14 70
r 0.097667 0 1 cbr 500 ------- 0 0.0 2.0 17 73
+ 0.097667 1 2 cbr 500 ------- 0 0.0 2.0 17 73
- 0.097667 1 2 cbr 500 ------- 0 0.0 2.0 17 73
+ 0.1 0 1 cbr 500 ------- 0 0.0 2.0 20 76
- 0.1 0 1 cbr 500 ------- 0 0.0 2.0 20 76
r 0.100333 1 2 cbr 500 ------- 0 0.0 2.0 15 71
r 0.102667 0 1 cbr 500 ------- 0 0.0 2.0 18 74
+ 0.102667 1 2 cbr 500 ------- 0 0.0 2.0 18 74
- 0.102667 1 2 cbr 500 ------- 0 0.0 2.0 18 74
+ 0.105 0 1 cbr 500 ------- 0 0.0 2.0 21 77
- 0.105 0 1 cbr 500 ------- 0 0.0 2.0 21 77
r 0.105333 1 2 cbr 500 ------- 0 0.0 2.0 16 72
r 0.107667 0 1 cbr 500 ------- 0 0.0 2.0 19 75
+ 0.107667 1 2 cbr 500 ------- 0 0.0 2.0 19 75
- 0.107667 1 2 cbr 500 ------- 0 0.0 2.0 19 75
+ 0.11 0 1 cbr 500 ------- 0 0.0 2.0 22 78
- 0.11 0 1 cbr 500 ------- 0 0.0 2.0 22 78
r 0.110333 1 2 cbr 500 ------- 0 0.0 2.0 17 73
r 0.112667 0 1 cbr 500 ------- 0 0.0 2.0 20 76
+ 0.112667 1 2 cbr 500 ------- 0 0.0 2.0 20 76
- 0.112667 1 2 cbr 500 ------- 0 0.0 2.0 20 76
+ 0.115 0 1 cbr 500 ------- 0 0.0 2.0 23 79
- 0.115 0 1 cbr 500 ------- 0 0.0 2.0 23 79
r 0.115333 1 2 cbr 500 ------- 0 0.0 2.0 18 74
r 0.117667 0 1 cbr 500 ------- 0 0.0 2.0 21 77
+ 0.117667 1 2 cbr 500 ------- 0 0.0 2.0 21 77
- 0.117667 1 2 cbr 500 ------- 0 0.0 2.0 21 77
+ 0.12 0 1 cbr 500 ------- 0 0.0 2.0 24 80
- 0.12 0 1 cbr 500 ------- 0 0.0 2.0 24 80
r 0.120333 1 2 cbr 500 ------- 0 0.0 2.0 19 75
r 0.122667 0 1 cbr 500 ------- 0 0.0 2.0 22 78
+ 0.122667 1 2 cbr 500 ------- 0 0.0 2.0 22 78
- 0.122667 1 2 cbr 500 ------- 0 0.0 2.0 22 78
+ 0.125 0 1 cbr 500 ------- 0 0.0 2.0 25 81
- 0.125 0 1 cbr 500 ------- 0 0.0 2.0 25 81
r 0.125333 1 2 cbr 500 ------- 0 0.0 2.0 20 76
r 0.127667 0 1 cbr 500 ------- 0 0.0 2.0 23 79
+ 0.127667 1 2 cbr 500 ------- 0 0.0 2.0 23 79
- 0.127667 1 2 cbr 500 ------- 0 0.0 2.0 23 79
+ 0.13 0 1 cbr 500 ------- 0 0.0 2.0 26 82
- 0.13 0 1 cbr 500 ------- 0 0.0 2.0 26 82
r 0.130333 1 2 cbr 500 ------- 0 0.0 2.0 21 77
r 0.132667 0 1 cbr 500 ------- 0 0.0 2.0 24 80
+ 0.132667 1 2 cbr 500 ------- 0 0.0 2.0 24 80
- 0.132667 1 2 cbr 500 ------- 0 0.0 2.0 24 80
+ 0.135 0 1 cbr 500 ------- 0 0.0 2.0 27 83
- 0.135 0 1 cbr 500 ------- 0 0.0 2.0 27 83
r 0.135333 1 2 cbr 500 ------- 0 0.0 2.0 22 78
r 0.137667 0 1 cbr 500 ------- 0 0.0 2.0 25 81
+ 0.137667 1 2 cbr 500 ------- 0 0.0 2.0 25 81
- 0.137667 1 2 cbr 500 ------- 0 0.0 2.0 25 81
+ 0.14 0 1 cbr 500 ------- 0 0.0 2.0 28 84
- 0.14 0 1 cbr 500 ------- 0 0.0 2.0 28 84
r 0.140333 1 2 cbr 500 ------- 0 0.0 2.0 23 79
r 0.142667 0 1 cbr 500 ------- 0 0.0 2.0 26 82
+ 0.142667 1 2 cbr 500 ------- 0 0.0 2.0 26 82
- 0.142667 1 2 cbr 500 ------- 0 0.0 2.0 26 82
+ 0.145 0 1 cbr 500 ------- 0 0.0 2.0 29 85
- 0.145 0 1 cbr 500 ------- 0 0.0 2.0 29 85
r 0.145333 1 2 cbr 500 ------- 0 0.0 2.0 24 80
r 0.147667 0 1 cbr 500 ------- 0 0.0 2.0 27 83
+ 0.147667 1 2 cbr 500 ------- 0 0.0 2.0 27 83
- 0.147667 1 2 cbr 500 ------- 0 0.0 2.0 27 83
+ 0.15 0 1 cbr 500 ------- 0 0.0 2.0 30 86
- 0.15 0 1 cbr 500 ------- 0 0.0 2.0 30 86
r 0.150333 1 2 cbr 500 ------- 0 0.0 2.0 25 81
r 0.152667 0 1 cbr 500 ------- 0 0.0 2.0 28 84
+ 0.152667 1 2 cbr 500 ------- 0 0.0 2.0 28 84
- 0.152667 1 2 cbr 500 ------- 0 0.0 2.0 28 84
+ 0.155 0 1 cbr 500 ------- 0 0.0 2.0 31 87
- 0.155 0 1 cbr 500 ------- 0 0.0 2.0 31 87
r 0.155333 1 2 cbr 500 ------- 0 0.0 2.0 26 82
+ 0.156481 6 0 rtProtoDV 7 ------- 0 6.1 0.2 -1 88
- 0.156481 6 0 rtProtoDV 7 ------- 0 6.1 0.2 -1 88
+ 0.156481 6 5 rtProtoDV 7 ------- 0 6.1 5.1 -1 89
- 0.156481 6 5 rtProtoDV 7 ------- 0 6.1 5.1 -1 89
r 0.157667 0 1 cbr 500 ------- 0 0.0 2.0 29 85
+ 0.157667 1 2 cbr 500 ------- 0 0.0 2.0 29 85
- 0.157667 1 2 cbr 500 ------- 0 0.0 2.0 29 85
+ 0.16 0 1 cbr 500 ------- 0 0.0 2.0 32 90
- 0.16 0 1 cbr 500 ------- 0 0.0 2.0 32 90
r 0.160333 1 2 cbr 500 ------- 0 0.0 2.0 27 83
r 0.162667 0 1 cbr 500 ------- 0 0.0 2.0 30 86
+ 0.162667 1 2 cbr 500 ------- 0 0.0 2.0 30 86
- 0.162667 1 2 cbr 500 ------- 0 0.0 2.0 30 86
+ 0.165 0 1 cbr 500 ------- 0 0.0 2.0 33 91
- 0.165 0 1 cbr 500 ------- 0 0.0 2.0 33 91
r 0.165333 1 2 cbr 500 ------- 0 0.0 2.0 28 84
r 0.166518 6 0 rtProtoDV 7 ------- 0 6.1 0.2 -1 88
r 0.166518 6 5 rtProtoDV 7 ------- 0 6.1 5.1 -1 89
r 0.167667 0 1 cbr 500 ------- 0 0.0 2.0 31 87
+ 0.167667 1 2 cbr 500 ------- 0 0.0 2.0 31 87
- 0.167667 1 2 cbr 500 ------- 0 0.0 2.0 31 87
+ 0.17 0 1 cbr 500 ------- 0 0.0 2.0 34 92
- 0.17 0 1 cbr 500 ------- 0 0.0 2.0 34 92
r 0.170333 1 2 cbr 500 ------- 0 0.0 2.0 29 85
r 0.172667 0 1 cbr 500 ------- 0 0.0 2.0 32 90
+ 0.172667 1 2 cbr 500 ------- 0 0.0 2.0 32 90
- 0.172667 1 2 cbr 500 ------- 0 0.0 2.0 32 90
+ 0.175 0 1 cbr 500 ------- 0 0.0 2.0 35 93
- 0.175 0 1 cbr 500 ------- 0 0.0 2.0 35 93
r 0.175333 1 2 cbr 500 ------- 0 0.0 2.0 30 86
r 0.177667 0 1 cbr 500 ------- 0 0.0 2.0 33 91
+ 0.177667 1 2 cbr 500 ------- 0 0.0 2.0 33 91
- 0.177667 1 2 cbr 500 ------- 0 0.0 2.0 33 91
+ 0.18 0 1 cbr 500 ------- 0 0.0 2.0 36 94
- 0.18 0 1 cbr 500 ------- 0 0.0 2.0 36 94
r 0.180333 1 2 cbr 500 ------- 0 0.0 2.0 31 87
r 0.182667 0 1 cbr 500 ------- 0 0.0 2.0 34 92
+ 0.182667 1 2 cbr 500 ------- 0 0.0 2.0 34 92
- 0.182667 1 2 cbr 500 ------- 0 0.0 2.0 34 92
+ 0.185 0 1 cbr 500 ------- 0 0.0 2.0 37 95
- 0.185 0 1 cbr 500 ------- 0 0.0 2.0 37 95
r 0.185333 1 2 cbr 500 ------- 0 0.0 2.0 32 90
r 0.187667 0 1 cbr 500 ------- 0 0.0 2.0 35 93
+ 0.187667 1 2 cbr 500 ------- 0 0.0 2.0 35 93
- 0.187667 1 2 cbr 500 ------- 0 0.0 2.0 35 93
+ 0.19 0 1 cbr 500 ------- 0 0.0 2.0 38 96
- 0.19 0 1 cbr 500 ------- 0 0.0 2.0 38 96
r 0.190333 1 2 cbr 500 ------- 0 0.0 2.0 33 91
r 0.192667 0 1 cbr 500 ------- 0 0.0 2.0 36 94
+ 0.192667 1 2 cbr 500 ------- 0 0.0 2.0 36 94
- 0.192667 1 2 cbr 500 ------- 0 0.0 2.0 36 94
+ 0.195 0 1 cbr 500 ------- 0 0.0 2.0 39 97
- 0.195 0 1 cbr 500 ------- 0 0.0 2.0 39 97
r 0.195333 1 2 cbr 500 ------- 0 0.0 2.0 34 92
r 0.197667 0 1 cbr 500 ------- 0 0.0 2.0 37 95
+ 0.197667 1 2 cbr 500 ------- 0 0.0 2.0 37 95
- 0.197667 1 2 cbr 500 ------- 0 0.0 2.0 37 95
+ 0.2 0 1 cbr 500 ------- 0 0.0 2.0 40 98
- 0.2 0 1 cbr 500 ------- 0 0.0 2.0 40 98
r 0.200333 1 2 cbr 500 ------- 0 0.0 2.0 35 93
r 0.202667 0 1 cbr 500 ------- 0 0.0 2.0 38 96
+ 0.202667 1 2 cbr 500 ------- 0 0.0 2.0 38 96
- 0.202667 1 2 cbr 500 ------- 0 0.0 2.0 38 96
+ 0.205 0 1 cbr 500 ------- 0 0.0 2.0 41 99
- 0.205 0 1 cbr 500 ------- 0 0.0 2.0 41 99
r 0.205333 1 2 cbr 500 ------- 0 0.0 2.0 36 94
r 0.207667 0 1 cbr 500 ------- 0 0.0 2.0 39 97
+ 0.207667 1 2 cbr 500 ------- 0 0.0 2.0 39 97
- 0.207667 1 2 cbr 500 ------- 0 0.0 2.0 39 97
+ 0.21 0 1 cbr 500 ------- 0 0.0 2.0 42 100
- 0.21 0 1 cbr 500 ------- 0 0.0 2.0 42 100
r 0.210333 1 2 cbr 500 ------- 0 0.0 2.0 37 95
r 0.212667 0 1 cbr 500 ------- 0 0.0 2.0 40 98
+ 0.212667 1 2 cbr 500 ------- 0 0.0 2.0 40 98
- 0.212667 1 2 cbr 500 ------- 0 0.0 2.0 40 98
+ 0.215 0 1 cbr 500 ------- 0 0.0 2.0 43 101
- 0.215 0 1 cbr 500 ------- 0 0.0 2.0 43 101
r 0.215333 1 2 cbr 500 ------- 0 0.0 2.0 38 96
r 0.217667 0 1 cbr 500 ------- 0 0.0 2.0 41 99
+ 0.217667 1 2 cbr 500 ------- 0 0.0 2.0 41 99
- 0.217667 1 2 cbr 500 ------- 0 0.0 2.0 41 99
+ 0.22 0 1 cbr 500 ------- 0 0.0 2.0 44 102
- 0.22 0 1 cbr 500 ------- 0 0.0 2.0 44 102
r 0.220333 1 2 cbr 500 ------- 0 0.0 2.0 39 97
+ 0.220587 4 3 rtProtoDV 7 ------- 0 4.1 3.1 -1 103
- 0.220587 4 3 rtProtoDV 7 ------- 0 4.1 3.1 -1 103
+ 0.220587 4 5 rtProtoDV 7 ------- 0 4.1 5.1 -1 104
- 0.220587 4 5 rtProtoDV 7 ------- 0 4.1 5.1 -1 104
r 0.222667 0 1 cbr 500 ------- 0 0.0 2.0 42 100
+ 0.222667 1 2 cbr 500 ------- 0 0.0 2.0 42 100
- 0.222667 1 2 cbr 500 ------- 0 0.0 2.0 42 100
+ 0.225 0 1 cbr 500 ------- 0 0.0 2.0 45 105
- 0.225 0 1 cbr 500 ------- 0 0.0 2.0 45 105
r 0.225333 1 2 cbr 500 ------- 0 0.0 2.0 40 98
r 0.227667 0 1 cbr 500 ------- 0 0.0 2.0 43 101
+ 0.227667 1 2 cbr 500 ------- 0 0.0 2.0 43 101
- 0.227667 1 2 cbr 500 ------- 0 0.0 2.0 43 101
+ 0.23 0 1 cbr 500 ------- 0 0.0 2.0 46 106
- 0.23 0 1 cbr 500 ------- 0 0.0 2.0 46 106
r 0.230333 1 2 cbr 500 ------- 0 0.0 2.0 41 99
r 0.230624 4 3 rtProtoDV 7 ------- 0 4.1 3.1 -1 103
r 0.230624 4 5 rtProtoDV 7 ------- 0 4.1 5.1 -1 104
r 0.232667 0 1 cbr 500 ------- 0 0.0 2.0 44 102
+ 0.232667 1 2 cbr 500 ------- 0 0.0 2.0 44 102
- 0.232667 1 2 cbr 500 ------- 0 0.0 2.0 44 102
+ 0.235 0 1 cbr 500 ------- 0 0.0 2.0 47 107
- 0.235 0 1 cbr 500 ------- 0 0.0 2.0 47 107
r 0.235333 1 2 cbr 500 ------- 0 0.0 2.0 42 100
r 0.237667 0 1 cbr 500 ------- 0 0.0 2.0 45 105
+ 0.237667 1 2 cbr 500 ------- 0 0.0 2.0 45 105
- 0.237667 1 2 cbr 500 ------- 0 0.0 2.0 45 105
+ 0.24 0 1 cbr 500 ------- 0 0.0 2.0 48 108
- 0.24 0 1 cbr 500 ------- 0 0.0 2.0 48 108
r 0.240333 1 2 cbr 500 ------- 0 0.0 2.0 43 101
r 0.242667 0 1 cbr 500 ------- 0 0.0 2.0 46 106
+ 0.242667 1 2 cbr 500 ------- 0 0.0 2.0 46 106
- 0.242667 1 2 cbr 500 ------- 0 0.0 2.0 46 106
+ 0.245 0 1 cbr 500 ------- 0 0.0 2.0 49 109
- 0.245 0 1 cbr 500 ------- 0 0.0 2.0 49 109
r 0.245333 1 2 cbr 500 ------- 0 0.0 2.0 44 102
r 0.247667 0 1 cbr 500 ------- 0 0.0 2.0 47 107
+ 0.247667 1 2 cbr 500 ------- 0 0.0 2.0 47 107
- 0.247667 1 2 cbr 500 ------- 0 0.0 2.0 47 107
+ 0.25 0 1 cbr 500 ------- 0 0.0 2.0 50 110
- 0.25 0 1 cbr 500 ------- 0 0.0 2.0 50 110
r 0.250333 1 2 cbr 500 ------- 0 0.0 2.0 45 105
r 0.252667 0 1 cbr 500 ------- 0 0.0 2.0 48 108
+ 0.252667 1 2 cbr 500 ------- 0 0.0 2.0 48 108
- 0.252667 1 2 cbr 500 ------- 0 0.0 2.0 48 108
+ 0.255 0 1 cbr 500 ------- 0 0.0 2.0 51 111
- 0.255 0 1 cbr 500 ------- 0 0.0 2.0 51 111
r 0.255333 1 2 cbr 500 ------- 0 0.0 2.0 46 106
r 0.257667 0 1 cbr 500 ------- 0 0.0 2.0 49 109
+ 0.257667 1 2 cbr 500 ------- 0 0.0 2.0 49 109
- 0.257667 1 2 cbr 500 ------- 0 0.0 2.0 49 109
+ 0.26 0 1 cbr 500 ------- 0 0.0 2.0 52 112
- 0.26 0 1 cbr 500 ------- 0 0.0 2.0 52 112
r 0.260333 1 2 cbr 500 ------- 0 0.0 2.0 47 107
r 0.262667 0 1 cbr 500 ------- 0 0.0 2.0 50 110
+ 0.262667 1 2 cbr 500 ------- 0 0.0 2.0 50 110
- 0.262667 1 2 cbr 500 ------- 0 0.0 2.0 50 110
+ 0.265 0 1 cbr 500 ------- 0 0.0 2.0 53 113
- 0.265 0 1 cbr 500 ------- 0 0.0 2.0 53 113
r 0.265333 1 2 cbr 500 ------- 0 0.0 2.0 48 108
r 0.267667 0 1 cbr 500 ------- 0 0.0 2.0 51 111
+ 0.267667 1 2 cbr 500 ------- 0 0.0 2.0 51 111
- 0.267667 1 2 cbr 500 ------- 0 0.0 2.0 51 111
+ 0.27 0 1 cbr 500 ------- 0 0.0 2.0 54 114
- 0.27 0 1 cbr 500 ------- 0 0.0 2.0 54 114
r 0.270333 1 2 cbr 500 ------- 0 0.0 2.0 49 109
r 0.272667 0 1 cbr 500 ------- 0 0.0 2.0 52 112
+ 0.272667 1 2 cbr 500 ------- 0 0.0 2.0 52 112
- 0.272667 1 2 cbr 500 ------- 0 0.0 2.0 52 112
+ 0.275 0 1 cbr 500 ------- 0 0.0 2.0 55 115
- 0.275 0 1 cbr 500 ------- 0 0.0 2.0 55 115
r 0.275333 1 2 cbr 500 ------- 0 0.0 2.0 50 110
r 0.277667 0 1 cbr 500 ------- 0 0.0 2.0 53 113
+ 0.277667 1 2 cbr 500 ------- 0 0.0 2.0 53 113
- 0.277667 1 2 cbr 500 ------- 0 0.0 2.0 53 113
+ 0.27794 1 0 rtProtoDV 7 ------- 0 1.1 0.2 -1 116
- 0.27794 1 0 rtProtoDV 7 ------- 0 1.1 0.2 -1 116
+ 0.27794 1 2 rtProtoDV 7 ------- 0 1.1 2.2 -1 117
+ 0.28 0 1 cbr 500 ------- 0 0.0 2.0 56 118
- 0.28 0 1 cbr 500 ------- 0 0.0 2.0 56 118
r 0.280333 1 2 cbr 500 ------- 0 0.0 2.0 51 111
- 0.280333 1 2 rtProtoDV 7 ------- 0 1.1 2.2 -1 117
r 0.282667 0 1 cbr 500 ------- 0 0.0 2.0 54 114
+ 0.282667 1 2 cbr 500 ------- 0 0.0 2.0 54 114
- 0.282667 1 2 cbr 500 ------- 0 0.0 2.0 54 114
+ 0.285 0 1 cbr 500 ------- 0 0.0 2.0 57 119
- 0.285 0 1 cbr 500 ------- 0 0.0 2.0 57 119
r 0.285333 1 2 cbr 500 ------- 0 0.0 2.0 52 112
r 0.287667 0 1 cbr 500 ------- 0 0.0 2.0 55 115
+ 0.287667 1 2 cbr 500 ------- 0 0.0 2.0 55 115
- 0.287667 1 2 cbr 500 ------- 0 0.0 2.0 55 115
r 0.287978 1 0 rtProtoDV 7 ------- 0 1.1 0.2 -1 116
+ 0.29 0 1 cbr 500 ------- 0 0.0 2.0 58 120
- 0.29 0 1 cbr 500 ------- 0 0.0 2.0 58 120
r 0.290333 1 2 cbr 500 ------- 0 0.0 2.0 53 113
r 0.290371 1 2 rtProtoDV 7 ------- 0 1.1 2.2 -1 117
r 0.292667 0 1 cbr 500 ------- 0 0.0 2.0 56 118
+ 0.292667 1 2 cbr 500 ------- 0 0.0 2.0 56 118
- 0.292667 1 2 cbr 500 ------- 0 0.0 2.0 56 118
+ 0.295 0 1 cbr 500 ------- 0 0.0 2.0 59 121
- 0.295 0 1 cbr 500 ------- 0 0.0 2.0 59 121
r 0.295333 1 2 cbr 500 ------- 0 0.0 2.0 54 114
r 0.297667 0 1 cbr 500 ------- 0 0.0 2.0 57 119
+ 0.297667 1 2 cbr 500 ------- 0 0.0 2.0 57 119
- 0.297667 1 2 cbr 500 ------- 0 0.0 2.0 57 119
+ 0.3 0 1 cbr 500 ------- 0 0.0 2.0 60 122
- 0.3 0 1 cbr 500 ------- 0 0.0 2.0 60 122
r 0.300333 1 2 cbr 500 ------- 0 0.0 2.0 55 115
r 0.302667 0 1 cbr 500 ------- 0 0.0 2.0 58 120
+ 0.302667 1 2 cbr 500 ------- 0 0.0 2.0 58 120
- 0.302667 1 2 cbr 500 ------- 0 0.0 2.0 58 120
+ 0.305 0 1 cbr 500 ------- 0 0.0 2.0 61 123
- 0.305 0 1 cbr 500 ------- 0 0.0 2.0 61 123
r 0.305333 1 2 cbr 500 ------- 0 0.0 2.0 56 118
r 0.307667 0 1 cbr 500 ------- 0 0.0 2.0 59 121
+ 0.307667 1 2 cbr 500 ------- 0 0.0 2.0 59 121
- 0.307667 1 2 cbr 500 ------- 0 0.0 2.0 59 121
+ 0.31 0 1 cbr 500 ------- 0 0.0 2.0 62 124
- 0.31 0 1 cbr 500 ------- 0 0.0 2.0 62 124
r 0.310333 1 2 cbr 500 ------- 0 0.0 2.0 57 119
r 0.312667 0 1 cbr 500 ------- 0 0.0 2.0 60 122
+ 0.312667 1 2 cbr 500 ------- 0 0.0 2.0 60 122
- 0.312667 1 2 cbr 500 ------- 0 0.0 2.0 60 122
+ 0.315 0 1 cbr 500 ------- 0 0.0 2.0 63 125
- 0.315 0 1 cbr 500 ------- 0 0.0 2.0 63 125
r 0.315333 1 2 cbr 500 ------- 0 0.0 2.0 58 120
r 0.317667 0 1 cbr 500 ------- 0 0.0 2.0 61 123
+ 0.317667 1 2 cbr 500 ------- 0 0.0 2.0 61 123
- 0.317667 1 2 cbr 500 ------- 0 0.0 2.0 61 123
+ 0.32 0 1 cbr 500 ------- 0 0.0 2.0 64 126
- 0.32 0 1 cbr 500 ------- 0 0.0 2.0 64 126
r 0.320333 1 2 cbr 500 ------- 0 0.0 2.0 59 121
r 0.322667 0 1 cbr 500 ------- 0 0.0 2.0 62 124
+ 0.322667 1 2 cbr 500 ------- 0 0.0 2.0 62 124
- 0.322667 1 2 cbr 500 ------- 0 0.0 2.0 62 124
+ 0.325 0 1 cbr 500 ------- 0 0.0 2.0 65 127
- 0.325 0 1 cbr 500 ------- 0 0.0 2.0 65 127
r 0.325333 1 2 cbr 500 ------- 0 0.0 2.0 60 122
r 0.327667 0 1 cbr 500 ------- 0 0.0 2.0 63 125
+ 0.327667 1 2 cbr 500 ------- 0 0.0 2.0 63 125
- 0.327667 1 2 cbr 500 ------- 0 0.0 2.0 63 125
+ 0.33 0 1 cbr 500 ------- 0 0.0 2.0 66 128
- 0.33 0 1 cbr 500 ------- 0 0.0 2.0 66 128
r 0.330333 1 2 cbr 500 ------- 0 0.0 2.0 61 123
r 0.332667 0 1 cbr 500 ------- 0 0.0 2.0 64 126
+ 0.332667 1 2 cbr 500 ------- 0 0.0 2.0 64 126
- 0.332667 1 2 cbr 500 ------- 0 0.0 2.0 64 126
+ 0.335 0 1 cbr 500 ------- 0 0.0 2.0 67 129
- 0.335 0 1 cbr 500 ------- 0 0.0 2.0 67 129
r 0.335333 1 2 cbr 500 ------- 0 0.0 2.0 62 124
r 0.337667 0 1 cbr 500 ------- 0 0.0 2.0 65 127
+ 0.337667 1 2 cbr 500 ------- 0 0.0 2.0 65 127
- 0.337667 1 2 cbr 500 ------- 0 0.0 2.0 65 127
+ 0.34 0 1 cbr 500 ------- 0 0.0 2.0 68 130
- 0.34 0 1 cbr 500 ------- 0 0.0 2.0 68 130
r 0.340333 1 2 cbr 500 ------- 0 0.0 2.0 63 125
r 0.342667 0 1 cbr 500 ------- 0 0.0 2.0 66 128
+ 0.342667 1 2 cbr 500 ------- 0 0.0 2.0 66 128
- 0.342667 1 2 cbr 500 ------- 0 0.0 2.0 66 128
+ 0.345 0 1 cbr 500 ------- 0 0.0 2.0 69 131
- 0.345 0 1 cbr 500 ------- 0 0.0 2.0 69 131
r 0.345333 1 2 cbr 500 ------- 0 0.0 2.0 64 126
r 0.347667 0 1 cbr 500 ------- 0 0.0 2.0 67 129
+ 0.347667 1 2 cbr 500 ------- 0 0.0 2.0 67 129
- 0.347667 1 2 cbr 500 ------- 0 0.0 2.0 67 129
+ 0.35 0 1 cbr 500 ------- 0 0.0 2.0 70 132
- 0.35 0 1 cbr 500 ------- 0 0.0 2.0 70 132
r 0.350333 1 2 cbr 500 ------- 0 0.0 2.0 65 127
r 0.352667 0 1 cbr 500 ------- 0 0.0 2.0 68 130
+ 0.352667 1 2 cbr 500 ------- 0 0.0 2.0 68 130
- 0.352667 1 2 cbr 500 ------- 0 0.0 2.0 68 130
+ 0.355 0 1 cbr 500 ------- 0 0.0 2.0 71 133
- 0.355 0 1 cbr 500 ------- 0 0.0 2.0 71 133
r 0.355333 1 2 cbr 500 ------- 0 0.0 2.0 66 128
r 0.357667 0 1 cbr 500 ------- 0 0.0 2.0 69 131
+ 0.357667 1 2 cbr 500 ------- 0 0.0 2.0 69 131
- 0.357667 1 2 cbr 500 ------- 0 0.0 2.0 69 131
+ 0.36 0 1 cbr 500 ------- 0 0.0 2.0 72 134
- 0.36 0 1 cbr 500 ------- 0 0.0 2.0 72 134
r 0.360333 1 2 cbr 500 ------- 0 0.0 2.0 67 129
r 0.362667 0 1 cbr 500 ------- 0 0.0 2.0 70 132
+ 0.362667 1 2 cbr 500 ------- 0 0.0 2.0 70 132
- 0.362667 1 2 cbr 500 ------- 0 0.0 2.0 70 132
+ 0.365 0 1 cbr 500 ------- 0 0.0 2.0 73 135
- 0.365 0 1 cbr 500 ------- 0 0.0 2.0 73 135
r 0.365333 1 2 cbr 500 ------- 0 0.0 2.0 68 130
r 0.367667 0 1 cbr 500 ------- 0 0.0 2.0 71 133
+ 0.367667 1 2 cbr 500 ------- 0 0.0 2.0 71 133
- 0.367667 1 2 cbr 500 ------- 0 0.0 2.0 71 133
+ 0.37 0 1 cbr 500 ------- 0 0.0 2.0 74 136
- 0.37 0 1 cbr 500 ------- 0 0.0 2.0 74 136
r 0.370333 1 2 cbr 500 ------- 0 0.0 2.0 69 131
r 0.372667 0 1 cbr 500 ------- 0 0.0 2.0 72 134
+ 0.372667 1 2 cbr 500 ------- 0 0.0 2.0 72 134
- 0.372667 1 2 cbr 500 ------- 0 0.0 2.0 72 134
+ 0.375 0 1 cbr 500 ------- 0 0.0 2.0 75 137
- 0.375 0 1 cbr 500 ------- 0 0.0 2.0 75 137
r 0.375333 1 2 cbr 500 ------- 0 0.0 2.0 70 132
r 0.377667 0 1 cbr 500 ------- 0 0.0 2.0 73 135
+ 0.377667 1 2 cbr 500 ------- 0 0.0 2.0 73 135
- 0.377667 1 2 cbr 500 ------- 0 0.0 2.0 73 135
+ 0.38 0 1 cbr 500 ------- 0 0.0 2.0 76 138
- 0.38 0 1 cbr 500 ------- 0 0.0 2.0 76 138
r 0.380333 1 2 cbr 500 ------- 0 0.0 2.0 71 133
r 0.382667 0 1 cbr 500 ------- 0 0.0 2.0 74 136
+ 0.382667 1 2 cbr 500 ------- 0 0.0 2.0 74 136
- 0.382667 1 2 cbr 500 ------- 0 0.0 2.0 74 136
+ 0.385 0 1 cbr 500 ------- 0 0.0 2.0 77 139
- 0.385 0 1 cbr 500 ------- 0 0.0 2.0 77 139
r 0.385333 1 2 cbr 500 ------- 0 0.0 2.0 72 134
r 0.387667 0 1 cbr 500 ------- 0 0.0 2.0 75 137
+ 0.387667 1 2 cbr 500 ------- 0 0.0 2.0 75 137
- 0.387667 1 2 cbr 500 ------- 0 0.0 2.0 75 137
+ 0.39 0 1 cbr 500 ------- 0 0.0 2.0 78 140
- 0.39 0 1 cbr 500 ------- 0 0.0 2.0 78 140
r 0.390333 1 2 cbr 500 ------- 0 0.0 2.0 73 135
r 0.392667 0 1 cbr 500 ------- 0 0.0 2.0 76 138
+ 0.392667 1 2 cbr 500 ------- 0 0.0 2.0 76 138
- 0.392667 1 2 cbr 500 ------- 0 0.0 2.0 76 138
+ 0.395 0 1 cbr 500 ------- 0 0.0 2.0 79 141
- 0.395 0 1 cbr 500 ------- 0 0.0 2.0 79 141
r 0.395333 1 2 cbr 500 ------- 0 0.0 2.0 74 136
r 0.397667 0 1 cbr 500 ------- 0 0.0 2.0 77 139
+ 0.397667 1 2 cbr 500 ------- 0 0.0 2.0 77 139
- 0.397667 1 2 cbr 500 ------- 0 0.0 2.0 77 139
+ 0.399578 5 4 rtProtoDV 7 ------- 0 5.1 4.1 -1 142
- 0.399578 5 4 rtProtoDV 7 ------- 0 5.1 4.1 -1 142
+ 0.399578 5 6 rtProtoDV 7 ------- 0 5.1 6.1 -1 143
- 0.399578 5 6 rtProtoDV 7 ------- 0 5.1 6.1 -1 143