n -t * -s 0  -x 800.0 -y 800.0 -Z 0 -z 50  -v circle -c black
n -t * -s 1  -x 800.0 -y 800.0 -Z 0 -z 50  -v circle -c black
V -t * -v 1.0a5 -a 0
W -t * -x 2020 -y 1020
A -t * -n 1 -p 0 -o 0xffffffff -c 31 -a 1
A -t * -h 1 -m 2147483647 -s 0
n -t * -a 0 -s 0 -S UP -v circle -c black -i black -x 800.0 -y 800.0 -Z 0
n -t * -a 1 -s 1 -S UP -v circle -c black -i black -x 800.0 -y 800.0 -Z 0
l -t * -s 0 -d 1 -S UP -r 1500000 -D 0.01 -c black
+ -t 0 -s 0 -d 1 -p tcpFriend -e 1032 -c 0 -i 0 -a 0 -x {0.0 1.0 0 ------- null}
- -t 0 -s 0 -d 1 -p tcpFriend -e 1032 -c 0 -i 0 -a 0 -x {0.0 1.0 0 ------- null}
h -t 0 -s 0 -d 1 -p tcpFriend -e 1032 -c 0 -i 0 -a 0 -x {0.0 1.0 -1 ------- null}
r -t 0.015504 -s 0 -d 1 -p tcpFriend -e 1032 -c 0 -i 0 -a 0 -x {0.0 1.0 0 ------- null}
+ -t 0.015504 -s 1 -d 0 -p tcpFriendCtl -e 40 -c 0 -i 1 -a 0 -x {1.0 0.0 0 ------- null}
- -t 0.015504 -s 1 -d 0 -p tcpFriendCtl -e 40 -c 0 -i 1 -a 0 -x {1.0 0.0 0 ------- null}
h -t 0.015504 -s 1 -d 0 -p tcpFriendCtl -e 40 -c 0 -i 1 -a 0 -x {1.0 0.0 -1 ------- null}
r -t 0.0257173333333333 -s 1 -d 0 -p tcpFriendCtl -e 40 -c 0 -i 1 -a 0 -x {1.0 0.0 0 ------- null}
+ -t 0.0257173333333333 -s 0 -d 1 -p tcpFriend -e 1032 -c 0 -i 2 -a 0 -x {0.0 1.0 1 ------- null}
- -t 0.0257173333333333 -s 0 -d 1 -p tcpFriend -e 1032 -c 0 -i 2 -a 0 -x {0.0 1.0 1 ------- null}
h -t 0.0257173333333333 -s 0 -d 1 -p tcpFriend -e 1032 -c 0 -i 2 -a 0 -x {0.0 1.0 -1 ------- null}
+ -t 0.0321466666666667 -s 0 -d 1 -p tcpFriend -e 1032 -c 0 -i 3 -a 0 -x {0.0 1.0 2 ------- null}
- -t 0.0321466666666667 -s 0 -d 1 -p tcpFriend -e 1032 -c 0 -i 3 -a 0 -x {0.0 1.0 2 ------- null}
h -t 0.0321466666666667 -s 0 -d 1 -p tcpFriend -e 1032 -c 0 -i 3 -a 0 -x {0.0 1.0 -1 ------- null}
+ -t 0.038576 -s 0 -d 1 -p tcpFriend -e 1032 -c 0 -i 4 -a 0 -x {0.0 1.0 3 ------- null}
- -t 0.038576 -s 0 -d 1 -p tcpFriend -e 1032 -c 0 -i 4 -a 0 -x {0.0 1.0 3 ------- null}
h -t 0.038576 -s 0 -d 1 -p tcpFriend -e 1032 -c 0 -i 4 -a 0 -x {0.0 1.0 -1 ------- null}
r -t 0.0412213333333333 -s 0 -d 1 -p tcpFriend -e 1032 -c 0 -i 2 -a 0 -x {0.0 1.0 1 ------- null}
+ -t 0.0450053333333333 -s 0 -d 1 -p tcpFriend -e 1032 -c 0 -i 5 -a 0 -x {0.0 1.0 4 ------- null}
- -t 0.0450053333333333 -s 0 -d 1 -p tcpFriend -e 1032 -c 0 -i 5 -a 0 -x {0.0 1.0 4 ------- null}
h -t 0.0450053333333333 -s 0 -d 1 -p tcpFriend -e 1032 -c 0 -i 5 -a 0 -x {0.0 1.0 -1 ------- null}
r -t 0.0476506666666667 -s 0 -d 1 -p tcpFriend -e 1032 -c 0 -i 3 -a 0 -x {0.0 1.0 2 ------- null}
+ -t 0.0476506666666667 -s 1 -d 0 -p tcpFriendCtl -e 40 -c 0 -i 6 -a 0 -x {1.0 0.0 2 ------- null}
- -t 0.0476506666666667 -s 1 -d 0 -p tcpFriendCtl -e 40 -c 0 -i 6 -a 0 -x {1.0 0.0 2 ------- null}
h -t 0.0476506666666667 -s 1 -d 0 -p tcpFriendCtl -e 40 -c 0 -i 6 -a 0 -x {1.0 0.0 -1 ------- null}
+ -t 0.0514346666666667 -s 0 -d 1 -p tcpFriend -e 1032 -c 0 -i 7 -a 0 -x {0.0 1.0 5 ------- null}
- -t 0.0514346666666667 -s 0 -d 1 -p tcpFriend -e 1032 -c 0 -i 7 -a 0 -x {0.0 1.0 5 ------- null}
h -t 0.0514346666666667 -s 0 -d 1 -p tcpFriend -e 1032 -c 0 -i 7 -a 0 -x {0.0 1.0 -1 ------- null}
r -t 0.05408 -s 0 -d 1 -p tcpFriend -e 1032 -c 0 -i 4 -a 0 -x {0.0 1.0 3 ------- null}
r -t 0.057864 -s 1 -d 0 -p tcpFriendCtl -e 40 -c 0 -i 6 -a 0 -x {1.0 0.0 2 ------- null}
+ -t 0.057864 -s 0 -d 1 -p tcpFriend -e 1032 -c 0 -i 8 -a 0 -x {0.0 1.0 6 ------- null}
- -t 0.057864 -s 0 -d 1 -p tcpFriend -e 1032 -c 0 -i 8 -a 0 -x {0.0 1.0 6 ------- null}
h -t 0.057864 -s 0 -d 1 -p tcpFriend -e 1032 -c 0 -i 8 -a 0 -x {0.0 1.0 -1 ------- null}
r -t 0.0605093333333333 -s 0 -d 1 -p tcpFriend -e 1032 -c 0 -i 5 -a 0 -x {0.0 1.0 4 ------- null}
+ -t 0.0642933333333333 -s 0 -d 1 -p tcpFriend -e 1032 -c 0 -i 9 -a 0 -x {0.0 1.0 7 ------- null}
- -t 0.0642933333333333 -s 0 -d 1 -p tcpFriend -e 1032 -c 0 -i 9 -a 0 -x {0.0 1.0 7 ------- null}
h -t 0.0642933333333333 -s 0 -d 1 -p tcpFriend -e 1032 -c 0 -i 9 -a 0 -x {0.0 1.0 -1 ------- null}
r -t 0.0669386666666667 -s 0 -d 1 -p tcpFriend -e 1032 -c 0 -i 7 -a 0 -x {0.0 1.0 5 ------- null}
+ -t 0.0707226666666667 -s 0 -d 1 -p tcpFriend -e 1032 -c 0 -i 10 -a 0 -x {0.0 1.0 8 ------- null}
- -t 0.0707226666666667 -s 0 -d 1 -p tcpFriend -e 1032 -c 0 -i 10 -a 0 -x {0.0 1.0 8 ------- null}
h -t 0.0707226666666667 -s 0 -d 1 -p tcpFriend -e 1032 -c 0 -i 10 -a 0 -x {0.0 1.0 -1 ------- null}
r -t 0.073368 -s 0 -d 1 -p tcpFriend -e 1032 -c 0 -i 8 -a 0 -x {0.0 1.0 6 ------- null}
+ -t 0.077152 -s 0 -d 1 -p tcpFriend -e 1032 -c 0 -i 11 -a 0 -x {0.0 1.0 9 ------- null}
- -t 0.077152 -s 0 -d 1 -p tcpFriend -e 1032 -c 0 -i 11 -a 0 -x {0.0 1.0 9 ------- null}
h -t 0.077152 -s 0 -d 1 -p tcpFriend -e 1032 -c 0 -i 11 -a 0 -x {0.0 1.0 -1 ------- null}
r -t 0.0797973333333333 -s 0 -d 1 -p tcpFriend -e 1032 -c 0 -i 9 -a 0 -x {0.0 1.0 7 ------- null}
+ -t 0.0797973333333333 -s 1 -d 0 -p tcpFriendCtl -e 40 -c 0 -i 12 -a 0 -x {1.0 0.0 7 ------- null}
- -t 0.0797973333333333 -s 1 -d 0 -p tcpFriendCtl -e 40 -c 0 -i 12 -a 0 -x {1.0 0.0 7 ------- null}
h -t 0.0797973333333333 -s 1 -d 0 -p tcpFriendCtl -e 40 -c 0 -i 12 -a 0 -x {1.0 0.0 -1 ------- null}
+ -t 0.0835813333333333 -s 0 -d 1 -p tcpFriend -e 1032 -c 0 -i 13 -a 0 -x {0.0 1.0 10 ------- null}
- -t 0.0835813333333333 -s 0 -d 1 -p tcpFriend -e 1032 -c 0 -i 13 -a 0 -x {0.0 1.0 10 ------- null}
h -t 0.0835813333333333 -s 0 -d 1 -p tcpFriend -e 1032 -c 0 -i 13 -a 0 -x {0.0 1.0 -1 ------- null}
r -t 0.0862266666666667 -s 0 -d 1 -p tcpFriend -e 1032 -c 0 -i 10 -a 0 -x {0.0 1.0 8 ------- null}
+ -t 0.0900106666666667 -s 0 -d 1 -p tcpFriend -e 1032 -c 0 -i 14 -a 0 -x {0.0 1.0 11 ------- null}
- -t 0.0900106666666667 -s 0 -d 1 -p tcpFriend -e 1032 -c 0 -i 14 -a 0 -x {0.0 1.0 11 ------- null}
h -t 0.0900106666666667 -s 0 -d 1 -p tcpFriend -e 1032 -c 0 -i 14 -a 0 -x {0.0 1.0 -1 ------- null}
r -t 0.0900106666666667 -s 1 -d 0 -p tcpFriendCtl -e 40 -c 0 -i 12 -a 0 -x {1.0 0.0 7 ------- null}
+ -t 0.0900106666666667 -s 0 -d 1 -p tcpFriend -e 1032 -c 0 -i 15 -a 0 -x {0.0 1.0 12 ------- null}
r -t 0.092656 -s 0 -d 1 -p tcpFriend -e 1032 -c 0 -i 11 -a 0 -x {0.0 1.0 9 ------- null}
- -t 0.0955146666666667 -s 0 -d 1 -p tcpFriend -e 1032 -c 0 -i 15 -a 0 -x {0.0 1.0 12 ------- null}
h -t 0.0955146666666667 -s 0 -d 1 -p tcpFriend -e 1032 -c 0 -i 15 -a 0 -x {0.0 1.0 -1 ------- null}
+ -t 0.0957256296296296 -s 0 -d 1 -p tcpFriend -e 1032 -c 0 -i 16 -a 0 -x {0.0 1.0 13 ------- null}
r -t 0.0990853333333333 -s 0 -d 1 -p tcpFriend -e 1032 -c 0 -i 13 -a 0 -x {0.0 1.0 10 ------- null}
+ -t 0.100869096296296 -s 0 -d 1 -p tcpFriend -e 1032 -c 0 -i 17 -a 0 -x {0.0 1.0 14 ------- null}
- -t 0.101018666666667 -s 0 -d 1 -p tcpFriend -e 1032 -c 0 -i 16 -a 0 -x {0.0 1.0 13 ------- null}
h -t 0.101018666666667 -s 0 -d 1 -p tcpFriend -e 1032 -c 0 -i 16 -a 0 -x {0.0 1.0 -1 ------- null}
r -t 0.105514666666667 -s 0 -d 1 -p tcpFriend -e 1032 -c 0 -i 14 -a 0 -x {0.0 1.0 11 ------- null}
+ -t 0.105544975084175 -s 0 -d 1 -p tcpFriend -e 1032 -c 0 -i 18 -a 0 -x {0.0 1.0 15 ------- null}
- -t 0.106522666666667 -s 0 -d 1 -p tcpFriend -e 1032 -c 0 -i 17 -a 0 -x {0.0 1.0 14 ------- null}
h -t 0.106522666666667 -s 0 -d 1 -p tcpFriend -e 1032 -c 0 -i 17 -a 0 -x {0.0 1.0 -1 ------- null}
+ -t 0.109831197306397 -s 0 -d 1 -p tcpFriend -e 1032 -c 0 -i 19 -a 0 -x {0.0 1.0 16 ------- null}
r -t 0.111018666666667 -s 0 -d 1 -p tcpFriend -e 1032 -c 0 -i 15 -a 0 -x {0.0 1.0 12 ------- null}
+ -t 0.111018666666667 -s 1 -d 0 -p tcpFriendCtl -e 40 -c 0 -i 20 -a 0 -x {1.0 0.0 12 ------- null}
- -t 0.111018666666667 -s 1 -d 0 -p tcpFriendCtl -e 40 -c 0 -i 20 -a 0 -x {1.0 0.0 12 ------- null}
h -t 0.111018666666667 -s 1 -d 0 -p tcpFriendCtl -e 40 -c 0 -i 20 -a 0 -x {1.0 0.0 -1 ------- null}
- -t 0.112026666666667 -s 0 -d 1 -p tcpFriend -e 1032 -c 0 -i 18 -a 0 -x {0.0 1.0 15 ------- null}
h -t 0.112026666666667 -s 0 -d 1 -p tcpFriend -e 1032 -c 0 -i 18 -a 0 -x {0.0 1.0 -1 ------- null}
+ -t 0.11378771012691 -s 0 -d 1 -p tcpFriend -e 1032 -c 0 -i 21 -a 0 -x {0.0 1.0 17 ------- null}
r -t 0.116522666666667 -s 0 -d 1 -p tcpFriend -e 1032 -c 0 -i 16 -a 0 -x {0.0 1.0 13 ------- null}
+ -t 0.117461614888815 -s 0 -d 1 -p tcpFriend -e 1032 -c 0 -i 22 -a 0 -x {0.0 1.0 18 ------- null}
- -t 0.117530666666667 -s 0 -d 1 -p tcpFriend -e 1032 -c 0 -i 19 -a 0 -x {0.0 1.0 16 ------- null}
h -t 0.117530666666667 -s 0 -d 1 -p tcpFriend -e 1032 -c 0 -i 19 -a 0 -x {0.0 1.0 -1 ------- null}
+ -t 0.120890592666593 -s 0 -d 1 -p tcpFriend -e 1032 -c 0 -i 23 -a 0 -x {0.0 1.0 19 ------- null}
r -t 0.121232 -s 1 -d 0 -p tcpFriendCtl -e 40 -c 0 -i 20 -a 0 -x {1.0 0.0 12 ------- null}
+ -t 0.121232 -s 0 -d 1 -p tcpFriend -e 1032 -c 0 -i 24 -a 0 -x {0.0 1.0 20 ------- null}
r -t 0.122026666666667 -s 0 -d 1 -p tcpFriend -e 1032 -c 0 -i 17 -a 0 -x {0.0 1.0 14 ------- null}
- -t 0.123034666666667 -s 0 -d 1 -p tcpFriend -e 1032 -c 0 -i 21 -a 0 -x {0.0 1.0 17 ------- null}
h -t 0.123034666666667 -s 0 -d 1 -p tcpFriend -e 1032 -c 0 -i 21 -a 0 -x {0.0 1.0 -1 ------- null}
+ -t 0.124435263060687 -s 0 -d 1 -p tcpFriend -e 1032 -c 0 -i 25 -a 0 -x {0.0 1.0 21 ------- null}
r -t 0.127530666666667 -s 0 -d 1 -p tcpFriend -e 1032 -c 0 -i 18 -a 0 -x {0.0 1.0 15 ------- null}
+ -t 0.127627203134983 -s 0 -d 1 -p tcpFriend -e 1032 -c 0 -i 26 -a 0 -x {0.0 1.0 22 ------- null}
- -t 0.128538666666667 -s 0 -d 1 -p tcpFriend -e 1032 -c 0 -i 22 -a 0 -x {0.0 1.0 18 ------- null}
h -t 0.128538666666667 -s 0 -d 1 -p tcpFriend -e 1032 -c 0 -i 22 -a 0 -x {0.0 1.0 -1 ------- null}
+ -t 0.130807899990559 -s 0 -d 1 -p tcpFriend -e 1032 -c 0 -i 27 -a 0 -x {0.0 1.0 23 ------- null}
r -t 0.133034666666667 -s 0 -d 1 -p tcpFriend -e 1032 -c 0 -i 19 -a 0 -x {0.0 1.0 16 ------- null}
+ -t 0.133977432555128 -s 0 -d 1 -p tcpFriend -e 1032 -c 0 -i 28 -a 0 -x {0.0 1.0 24 ------- null}
- -t 0.134042666666667 -s 0 -d 1 -p tcpFriend -e 1032 -c 0 -i 23 -a 0 -x {0.0 1.0 19 ------- null}
h -t 0.134042666666667 -s 0 -d 1 -p tcpFriend -e 1032 -c 0 -i 23 -a 0 -x {0.0 1.0 -1 ------- null}
+ -t 0.1371358789282 -s 0 -d 1 -p tcpFriend -e 1032 -c 0 -i 29 -a 0 -x {0.0 1.0 25 ------- null}
r -t 0.138538666666667 -s 0 -d 1 -p tcpFriend -e 1032 -c 0 -i 21 -a 0 -x {0.0 1.0 17 ------- null}
+ -t 0.138538666666667 -s 1 -d 0 -p tcpFriendCtl -e 40 -c 0 -i 30 -a 0 -x {1.0 0.0 17 ------- null}
- -t 0.138538666666667 -s 1 -d 0 -p tcpFriendCtl -e 40 -c 0 -i 30 -a 0 -x {1.0 0.0 17 ------- null}
h -t 0.138538666666667 -s 1 -d 0 -p tcpFriendCtl -e 40 -c 0 -i 30 -a 0 -x {1.0 0.0 -1 ------- null}
- -t 0.139546666666667 -s 0 -d 1 -p tcpFriend -e 1032 -c 0 -i 24 -a 0 -x {0.0 1.0 20 ------- null}
h -t 0.139546666666667 -s 0 -d 1 -p tcpFriend -e 1032 -c 0 -i 24 -a 0 -x {0.0 1.0 -1 ------- null}
+ -t 0.140283316392624 -s 0 -d 1 -p tcpFriend -e 1032 -c 0 -i 31 -a 0 -x {0.0 1.0 26 ------- null}
+ -t 0.143419821425941 -s 0 -d 1 -p tcpFriend -e 1032 -c 0 -i 32 -a 0 -x {0.0 1.0 27 ------- null}
r -t 0.144042666666667 -s 0 -d 1 -p tcpFriend -e 1032 -c 0 -i 22 -a 0 -x {0.0 1.0 18 ------- null}
- -t 0.145050666666667 -s 0 -d 1 -p tcpFriend -e 1032 -c 0 -i 25 -a 0 -x {0.0 1.0 21 ------- null}
h -t 0.145050666666667 -s 0 -d 1 -p tcpFriend -e 1032 -c 0 -i 25 -a 0 -x {0.0 1.0 -1 ------- null}
+ -t 0.146545469711526 -s 0 -d 1 -p tcpFriend -e 1032 -c 0 -i 33 -a 0 -x {0.0 1.0 28 ------- null}
r -t 0.148752 -s 1 -d 0 -p tcpFriendCtl -e 40 -c 0 -i 30 -a 0 -x {1.0 0.0 17 ------- null}
+ -t 0.148752 -s 0 -d 1 -p tcpFriend -e 1032 -c 0 -i 34 -a 0 -x {0.0 1.0 29 ------- null}
r -t 0.149546666666667 -s 0 -d 1 -p tcpFriend -e 1032 -c 0 -i 23 -a 0 -x {0.0 1.0 19 ------- null}
- -t 0.150554666666667 -s 0 -d 1 -p tcpFriend -e 1032 -c 0 -i 26 -a 0 -x {0.0 1.0 22 ------- null}
h -t 0.150554666666667 -s 0 -d 1 -p tcpFriend -e 1032 -c 0 -i 26 -a 0 -x {0.0 1.0 -1 ------- null}
+ -t 0.151831031820942 -s 0 -d 1 -p tcpFriend -e 1032 -c 0 -i 35 -a 0 -x {0.0 1.0 30 ------- null}
+ -t 0.154868135969958 -s 0 -d 1 -p tcpFriend -e 1032 -c 0 -i 36 -a 0 -x {0.0 1.0 31 ------- null}
r -t 0.155050666666667 -s 0 -d 1 -p tcpFriend -e 1032 -c 0 -i 24 -a 0 -x {0.0 1.0 20 ------- null}
- -t 0.156058666666667 -s 0 -d 1 -p tcpFriend -e 1032 -c 0 -i 27 -a 0 -x {0.0 1.0 23 ------- null}
h -t 0.156058666666667 -s 0 -d 1 -p tcpFriend -e 1032 -c 0 -i 27 -a 0 -x {0.0 1.0 -1 ------- null}
+ -t 0.1578644389786 -s 0 -d 1 -p tcpFriend -e 1032 -c 0 -i 37 -a 0 -x {0.0 1.0 32 ------- null}
r -t 0.160554666666667 -s 0 -d 1 -p tcpFriend -e 1032 -c 0 -i 25 -a 0 -x {0.0 1.0 21 ------- null}
+ -t 0.160821022578046 -s 0 -d 1 -p tcpFriend -e 1032 -c 0 -i 38 -a 0 -x {0.0 1.0 33 ------- null}
- -t 0.161562666666667 -s 0 -d 1 -p tcpFriend -e 1032 -c 0 -i 28 -a 0 -x {0.0 1.0 24 ------- null}
h -t 0.161562666666667 -s 0 -d 1 -p tcpFriend -e 1032 -c 0 -i 28 -a 0 -x {0.0 1.0 -1 ------- null}
+ -t 0.163738926043539 -s 0 -d 1 -p tcpFriend -e 1032 -c 0 -i 39 -a 0 -x {0.0 1.0 34 ------- null}
r -t 0.166058666666667 -s 0 -d 1 -p tcpFriend -e 1032 -c 0 -i 26 -a 0 -x {0.0 1.0 22 ------- null}
+ -t 0.166058666666667 -s 1 -d 0 -p tcpFriendCtl -e 40 -c 0 -i 40 -a 0 -x {1.0 0.0 22 ------- null}
- -t 0.166058666666667 -s 1 -d 0 -p tcpFriendCtl -e 40 -c 0 -i 40 -a 0 -x {1.0 0.0 22 ------- null}
h -t 0.166058666666667 -s 1 -d 0 -p tcpFriendCtl -e 40 -c 0 -i 40 -a 0 -x {1.0 0.0 -1 ------- null}
+ -t 0.166619148387449 -s 0 -d 1 -p tcpFriend -e 1032 -c 0 -i 41 -a 0 -x {0.0 1.0 35 ------- null}
- -t 0.167066666666667 -s 0 -d 1 -p tcpFriend -e 1032 -c 0 -i 29 -a 0 -x {0.0 1.0 25 ------- null}
h -t 0.167066666666667 -s 0 -d 1 -p tcpFriend -e 1032 -c 0 -i 29 -a 0 -x {0.0 1.0 -1 ------- null}
+ -t 0.169462650412543 -s 0 -d 1 -p tcpFriend -e 1032 -c 0 -i 42 -a 0 -x {0.0 1.0 36 ------- null}
r -t 0.171562666666667 -s 0 -d 1 -p tcpFriend -e 1032 -c 0 -i 27 -a 0 -x {0.0 1.0 23 ------- null}
+ -t 0.172270356636009 -s 0 -d 1 -p tcpFriend -e 1032 -c 0 -i 43 -a 0 -x {0.0 1.0 37 ------- null}
- -t 0.172570666666667 -s 0 -d 1 -p tcpFriend -e 1032 -c 0 -i 31 -a 0 -x {0.0 1.0 26 ------- null}
h -t 0.172570666666667 -s 0 -d 1 -p tcpFriend -e 1032 -c 0 -i 31 -a 0 -x {0.0 1.0 -1 ------- null}
+ -t 0.175043157093884 -s 0 -d 1 -p tcpFriend -e 1032 -c 0 -i 44 -a 0 -x {0.0 1.0 38 ------- null}
r -t 0.176272 -s 1 -d 0 -p tcpFriendCtl -e 40 -c 0 -i 40 -a 0 -x {1.0 0.0 22 ------- null}
+ -t 0.176272 -s 0 -d 1 -p tcpFriend -e 1032 -c 0 -i 45 -a 0 -x {0.0 1.0 39 ------- null}
r -t 0.177066666666667 -s 0 -d 1 -p tcpFriend -e 1032 -c 0 -i 28 -a 0 -x {0.0 1.0 24 ------- null}
- -t 0.178074666666667 -s 0 -d 1 -p tcpFriend -e 1032 -c 0 -i 32 -a 0 -x {0.0 1.0 27 ------- null}
h -t 0.178074666666667 -s 0 -d 1 -p tcpFriend -e 1032 -c 0 -i 32 -a 0 -x {0.0 1.0 -1 ------- null}
r -t 0.182570666666667 -s 0 -d 1 -p tcpFriend -e 1032 -c 0 -i 29 -a 0 -x {0.0 1.0 25 ------- null}
- -t 0.183578666666667 -s 0 -d 1 -p tcpFriend -e 1032 -c 0 -i 33 -a 0 -x {0.0 1.0 28 ------- null}
h -t 0.183578666666667 -s 0 -d 1 -p tcpFriend -e 1032 -c 0 -i 33 -a 0 -x {0.0 1.0 -1 ------- null}
+ -t 0.183612426434481 -s 0 -d 1 -p tcpFriend -e 1032 -c 0 -i 46 -a 0 -x {0.0 1.0 40 ------- null}
r -t 0.188074666666667 -s 0 -d 1 -p tcpFriend -e 1032 -c 0 -i 31 -a 0 -x {0.0 1.0 26 ------- null}
- -t 0.189082666666667 -s 0 -d 1 -p tcpFriend -e 1032 -c 0 -i 34 -a 0 -x {0.0 1.0 29 ------- null}
h -t 0.189082666666667 -s 0 -d 1 -p tcpFriend -e 1032 -c 0 -i 34 -a 0 -x {0.0 1.0 -1 ------- null}
+ -t 0.190952852868961 -s 0 -d 1 -p tcpFriend -e 1032 -c 0 -i 47 -a 0 -x {0.0 1.0 41 ------- null}
r -t 0.193578666666667 -s 0 -d 1 -p tcpFriend -e 1032 -c 0 -i 32 -a 0 -x {0.0 1.0 27 ------- null}
+ -t 0.193578666666667 -s 1 -d 0 -p tcpFriendCtl -e 40 -c 0 -i 48 -a 0 -x {1.0 0.0 27 ------- null}
- -t 0.193578666666667 -s 1 -d 0 -p tcpFriendCtl -e 40 -c 0 -i 48 -a 0 -x {1.0 0.0 27 ------- null}
h -t 0.193578666666667 -s 1 -d 0 -p tcpFriendCtl -e 40 -c 0 -i 48 -a 0 -x {1.0 0.0 -1 ------- null}
- -t 0.194586666666667 -s 0 -d 1 -p tcpFriend -e 1032 -c 0 -i 35 -a 0 -x {0.0 1.0 30 ------- null}
h -t 0.194586666666667 -s 0 -d 1 -p tcpFriend -e 1032 -c 0 -i 35 -a 0 -x {0.0 1.0 -1 ------- null}
+ -t 0.198293279303442 -s 0 -d 1 -p tcpFriend -e 1032 -c 0 -i 49 -a 0 -x {0.0 1.0 42 ------- null}
r -t 0.199082666666667 -s 0 -d 1 -p tcpFriend -e 1032 -c 0 -i 33 -a 0 -x {0.0 1.0 28 ------- null}
- -t 0.200090666666667 -s 0 -d 1 -p tcpFriend -e 1032 -c 0 -i 36 -a 0 -x {0.0 1.0 31 ------- null}
h -t 0.200090666666667 -s 0 -d 1 -p tcpFriend -e 1032 -c 0 -i 36 -a 0 -x {0.0 1.0 -1 ------- null}
r -t 0.203792 -s 1 -d 0 -p tcpFriendCtl -e 40 -c 0 -i 48 -a 0 -x {1.0 0.0 27 ------- null}
+ -t 0.203792 -s 0 -d 1 -p tcpFriend -e 1032 -c 0 -i 50 -a 0 -x {0.0 1.0 43 ------- null}
r -t 0.204586666666667 -s 0 -d 1 -p tcpFriend -e 1032 -c 0 -i 34 -a 0 -x {0.0 1.0 29 ------- null}
- -t 0.205594666666667 -s 0 -d 1 -p tcpFriend -e 1032 -c 0 -i 37 -a 0 -x {0.0 1.0 32 ------- null}
h -t 0.205594666666667 -s 0 -d 1 -p tcpFriend -e 1032 -c 0 -i 37 -a 0 -x {0.0 1.0 -1 ------- null}
r -t 0.210090666666667 -s 0 -d 1 -p tcpFriend -e 1032 -c 0 -i 35 -a 0 -x {0.0 1.0 30 ------- null}
- -t 0.211098666666667 -s 0 -d 1 -p tcpFriend -e 1032 -c 0 -i 38 -a 0 -x {0.0 1.0 33 ------- null}
h -t 0.211098666666667 -s 0 -d 1 -p tcpFriend -e 1032 -c 0 -i 38 -a 0 -x {0.0 1.0 -1 ------- null}
+ -t 0.211775619616588 -s 0 -d 1 -p tcpFriend -e 1032 -c 0 -i 51 -a 0 -x {0.0 1.0 44 ------- null}
r -t 0.215594666666667 -s 0 -d 1 -p tcpFriend -e 1032 -c 0 -i 36 -a 0 -x {0.0 1.0 31 ------- null}
- -t 0.216602666666667 -s 0 -d 1 -p tcpFriend -e 1032 -c 0 -i 39 -a 0 -x {0.0 1.0 34 ------- null}
h -t 0.216602666666667 -s 0 -d 1 -p tcpFriend -e 1032 -c 0 -i 39 -a 0 -x {0.0 1.0 -1 ------- null}
+ -t 0.219759239233175 -s 0 -d 1 -p tcpFriend -e 1032 -c 0 -i 52 -a 0 -x {0.0 1.0 45 ------- null}
r -t 0.221098666666667 -s 0 -d 1 -p tcpFriend -e 1032 -c 0 -i 37 -a 0 -x {0.0 1.0 32 ------- null}
+ -t 0.221098666666667 -s 1 -d 0 -p tcpFriendCtl -e 40 -c 0 -i 53 -a 0 -x {1.0 0.0 32 ------- null}
- -t 0.221098666666667 -s 1 -d 0 -p tcpFriendCtl -e 40 -c 0 -i 53 -a 0 -x {1.0 0.0 32 ------- null}
h -t 0.221098666666667 -s 1 -d 0 -p tcpFriendCtl -e 40 -c 0 -i 53 -a 0 -x {1.0 0.0 -1 ------- null}
- -t 0.222106666666667 -s 0 -d 1 -p tcpFriend -e 1032 -c 0 -i 41 -a 0 -x {0.0 1.0 35 ------- null}
h -t 0.222106666666667 -s 0 -d 1 -p tcpFriend -e 1032 -c 0 -i 41 -a 0 -x {0.0 1.0 -1 ------- null}
r -t 0.226602666666667 -s 0 -d 1 -p tcpFriend -e 1032 -c 0 -i 38 -a 0 -x {0.0 1.0 33 ------- null}
- -t 0.227610666666667 -s 0 -d 1 -p tcpFriend -e 1032 -c 0 -i 42 -a 0 -x {0.0 1.0 36 ------- null}
h -t 0.227610666666667 -s 0 -d 1 -p tcpFriend -e 1032 -c 0 -i 42 -a 0 -x {0.0 1.0 -1 ------- null}
+ -t 0.227742858849763 -s 0 -d 1 -p tcpFriend -e 1032 -c 0 -i 54 -a 0 -x {0.0 1.0 46 ------- null}
r -t 0.231312 -s 1 -d 0 -p tcpFriendCtl -e 40 -c 0 -i 53 -a 0 -x {1.0 0.0 32 ------- null}
+ -t 0.231312 -s 0 -d 1 -p tcpFriend -e 1032 -c 0 -i 55 -a 0 -x {0.0 1.0 47 ------- null}
r -t 0.232106666666667 -s 0 -d 1 -p tcpFriend -e 1032 -c 0 -i 39 -a 0 -x {0.0 1.0 34 ------- null}
- -t 0.233114666666667 -s 0 -d 1 -p tcpFriend -e 1032 -c 0 -i 43 -a 0 -x {0.0 1.0 37 ------- null}
h -t 0.233114666666667 -s 0 -d 1 -p tcpFriend -e 1032 -c 0 -i 43 -a 0 -x {0.0 1.0 -1 ------- null}
+ -t 0.236372548890288 -s 0 -d 1 -p tcpFriend -e 1032 -c 0 -i 56 -a 0 -x {0.0 1.0 48 ------- null}
r -t 0.237610666666667 -s 0 -d 1 -p tcpFriend -e 1032 -c 0 -i 41 -a 0 -x {0.0 1.0 35 ------- null}
- -t 0.238618666666667 -s 0 -d 1 -p tcpFriend -e 1032 -c 0 -i 44 -a 0 -x {0.0 1.0 38 ------- null}
h -t 0.238618666666667 -s 0 -d 1 -p tcpFriend -e 1032 -c 0 -i 44 -a 0 -x {0.0 1.0 -1 ------- null}
+ -t 0.241055775465562 -s 0 -d 1 -p tcpFriend -e 1032 -c 0 -i 57 -a 0 -x {0.0 1.0 49 ------- null}
r -t 0.243114666666667 -s 0 -d 1 -p tcpFriend -e 1032 -c 0 -i 42 -a 0 -x {0.0 1.0 36 ------- null}
- -t 0.244122666666667 -s 0 -d 1 -p tcpFriend -e 1032 -c 0 -i 45 -a 0 -x {0.0 1.0 39 ------- null}
h -t 0.244122666666667 -s 0 -d 1 -p tcpFriend -e 1032 -c 0 -i 45 -a 0 -x {0.0 1.0 -1 ------- null}
+ -t 0.245414042911353 -s 0 -d 1 -p tcpFriend -e 1032 -c 0 -i 58 -a 0 -x {0.0 1.0 50 ------- null}
r -t 0.248618666666667 -s 0 -d 1 -p tcpFriend -e 1032 -c 0 -i 43 -a 0 -x {0.0 1.0 37 ------- null}
+ -t 0.248618666666667 -s 1 -d 0 -p tcpFriendCtl -e 40 -c 0 -i 59 -a 0 -x {1.0 0.0 37 ------- null}
- -t 0.248618666666667 -s 1 -d 0 -p tcpFriendCtl -e 40 -c 0 -i 59 -a 0 -x {1.0 0.0 37 ------- null}
h -t 0.248618666666667 -s 1 -d 0 -p tcpFriendCtl -e 40 -c 0 -i 59 -a 0 -x {1.0 0.0 -1 ------- null}
+ -t 0.249489521563211 -s 0 -d 1 -p tcpFriend -e 1032 -c 0 -i 60 -a 0 -x {0.0 1.0 51 ------- null}
- -t 0.249626666666667 -s 0 -d 1 -p tcpFriend -e 1032 -c 0 -i 46 -a 0 -x {0.0 1.0 40 ------- null}
h -t 0.249626666666667 -s 0 -d 1 -p tcpFriend -e 1032 -c 0 -i 46 -a 0 -x {0.0 1.0 -1 ------- null}
+ -t 0.253316673189252 -s 0 -d 1 -p tcpFriend -e 1032 -c 0 -i 61 -a 0 -x {0.0 1.0 52 ------- null}
r -t 0.254122666666667 -s 0 -d 1 -p tcpFriend -e 1032 -c 0 -i 44 -a 0 -x {0.0 1.0 38 ------- null}
- -t 0.255130666666667 -s 0 -d 1 -p tcpFriend -e 1032 -c 0 -i 47 -a 0 -x {0.0 1.0 41 ------- null}
h -t 0.255130666666667 -s 0 -d 1 -p tcpFriend -e 1032 -c 0 -i 47 -a 0 -x {0.0 1.0 -1 ------- null}
+ -t 0.256924021879756 -s 0 -d 1 -p tcpFriend -e 1032 -c 0 -i 62 -a 0 -x {0.0 1.0 53 ------- null}
r -t 0.258832 -s 1 -d 0 -p tcpFriendCtl -e 40 -c 0 -i 59 -a 0 -x {1.0 0.0 37 ------- null}
+ -t 0.258832 -s 0 -d 1 -p tcpFriend -e 1032 -c 0 -i 63 -a 0 -x {0.0 1.0 54 ------- null}
r -t 0.259626666666667 -s 0 -d 1 -p tcpFriend -e 1032 -c 0 -i 45 -a 0 -x {0.0 1.0 39 ------- null}
- -t 0.260634666666667 -s 0 -d 1 -p tcpFriend -e 1032 -c 0 -i 49 -a 0 -x {0.0 1.0 42 ------- null}
h -t 0.260634666666667 -s 0 -d 1 -p tcpFriend -e 1032 -c 0 -i 49 -a 0 -x {0.0 1.0 -1 ------- null}
+ -t 0.26206768199409 -s 0 -d 1 -p tcpFriend -e 1032 -c 0 -i 64 -a 0 -x {0.0 1.0 55 ------- null}
r -t 0.265130666666667 -s 0 -d 1 -p tcpFriend -e 1032 -c 0 -i 46 -a 0 -x {0.0 1.0 40 ------- null}
+ -t 0.265144843354959 -s 0 -d 1 -p tcpFriend -e 1032 -c 0 -i 65 -a 0 -x {0.0 1.0 56 ------- null}
- -t 0.266138666666667 -s 0 -d 1 -p tcpFriend -e 1032 -c 0 -i 50 -a 0 -x {0.0 1.0 43 ------- null}
h -t 0.266138666666667 -s 0 -d 1 -p tcpFriend -e 1032 -c 0 -i 50 -a 0 -x {0.0 1.0 -1 ------- null}
+ -t 0.268078290971834 -s 0 -d 1 -p tcpFriend -e 1032 -c 0 -i 66 -a 0 -x {0.0 1.0 57 ------- null}
r -t 0.270634666666667 -s 0 -d 1 -p tcpFriend -e 1032 -c 0 -i 47 -a 0 -x {0.0 1.0 41 ------- null}
+ -t 0.270880849707239 -s 0 -d 1 -p tcpFriend -e 1032 -c 0 -i 67 -a 0 -x {0.0 1.0 58 ------- null}
- -t 0.271642666666667 -s 0 -d 1 -p tcpFriend -e 1032 -c 0 -i 51 -a 0 -x {0.0 1.0 44 ------- null}
h -t 0.271642666666667 -s 0 -d 1 -p tcpFriend -e 1032 -c 0 -i 51 -a 0 -x {0.0 1.0 -1 ------- null}
+ -t 0.273563701035076 -s 0 -d 1 -p tcpFriend -e 1032 -c 0 -i 68 -a 0 -x {0.0 1.0 59 ------- null}
r -t 0.276138666666667 -s 0 -d 1 -p tcpFriend -e 1032 -c 0 -i 49 -a 0 -x {0.0 1.0 42 ------- null}
- -t 0.277146666666667 -s 0 -d 1 -p tcpFriend -e 1032 -c 0 -i 52 -a 0 -x {0.0 1.0 45 ------- null}
h -t 0.277146666666667 -s 0 -d 1 -p tcpFriend -e 1032 -c 0 -i 52 -a 0 -x {0.0 1.0 -1 ------- null}
+ -t 0.278050397101749 -s 0 -d 1 -p tcpFriend -e 1032 -c 0 -i 69 -a 0 -x {0.0 1.0 60 ------- null}
r -t 0.281642666666667 -s 0 -d 1 -p tcpFriend -e 1032 -c 0 -i 50 -a 0 -x {0.0 1.0 43 ------- null}
+ -t 0.281642666666667 -s 1 -d 0 -p tcpFriendCtl -e 40 -c 0 -i 70 -a 0 -x {1.0 0.0 43 ------- null}
- -t 0.281642666666667 -s 1 -d 0 -p tcpFriendCtl -e 40 -c 0 -i 70 -a 0 -x {1.0 0.0 43 ------- null}
h -t 0.281642666666667 -s 1 -d 0 -p tcpFriendCtl -e 40 -c 0 -i 70 -a 0 -x {1.0 0.0 -1 ------- null}
+ -t 0.282537093168422 -s 0 -d 1 -p tcpFriend -e 1032 -c 0 -i 71 -a 0 -x {0.0 1.0 61 ------- null}
- -t 0.282650666666667 -s 0 -d 1 -p tcpFriend -e 1032 -c 0 -i 54 -a 0 -x {0.0 1.0 46 ------- null}
h -t 0.282650666666667 -s 0 -d 1 -p tcpFriend -e 1032 -c 0 -i 54 -a 0 -x {0.0 1.0 -1 ------- null}
+ -t 0.287023789235095 -s 0 -d 1 -p tcpFriend -e 1032 -c 0 -i 72 -a 0 -x {0.0 1.0 62 ------- null}
r -t 0.287146666666667 -s 0 -d 1 -p tcpFriend -e 1032 -c 0 -i 51 -a 0 -x {0.0 1.0 44 ------- null}
- -t 0.288154666666667 -s 0 -d 1 -p tcpFriend -e 1032 -c 0 -i 55 -a 0 -x {0.0 1.0 47 ------- null}
h -t 0.288154666666667 -s 0 -d 1 -p tcpFriend -e 1032 -c 0 -i 55 -a 0 -x {0.0 1.0 -1 ------- null}
+ -t 0.291510485301768 -s 0 -d 1 -p tcpFriend -e 1032 -c 0 -i 73 -a 0 -x {0.0 1.0 63 ------- null}
r -t 0.291856 -s 1 -d 0 -p tcpFriendCtl -e 40 -c 0 -i 70 -a 0 -x {1.0 0.0 43 ------- null}
+ -t 0.291856 -s 0 -d 1 -p tcpFriend -e 1032 -c 0 -i 74 -a 0 -x {0.0 1.0 64 ------- null}
r -t 0.292650666666667 -s 0 -d 1 -p tcpFriend -e 1032 -c 0 -i 52 -a 0 -x {0.0 1.0 45 ------- null}
- -t 0.293658666666667 -s 0 -d 1 -p tcpFriend -e 1032 -c 0 -i 56 -a 0 -x {0.0 1.0 48 ------- null}
h -t 0.293658666666667 -s 0 -d 1 -p tcpFriend -e 1032 -c 0 -i 56 -a 0 -x {0.0 1.0 -1 ------- null}
r -t 0.298154666666667 -s 0 -d 1 -p tcpFriend -e 1032 -c 0 -i 54 -a 0 -x {0.0 1.0 46 ------- null}
- -t 0.299162666666667 -s 0 -d 1 -p tcpFriend -e 1032 -c 0 -i 57 -a 0 -x {0.0 1.0 49 ------- null}
h -t 0.299162666666667 -s 0 -d 1 -p tcpFriend -e 1032 -c 0 -i 57 -a 0 -x {0.0 1.0 -1 ------- null}
+ -t 0.300624398118369 -s 0 -d 1 -p tcpFriend -e 1032 -c 0 -i 75 -a 0 -x {0.0 1.0 65 ------- null}
r -t 0.303658666666667 -s 0 -d 1 -p tcpFriend -e 1032 -c 0 -i 55 -a 0 -x {0.0 1.0 47 ------- null}
- -t 0.304666666666667 -s 0 -d 1 -p tcpFriend -e 1032 -c 0 -i 58 -a 0 -x {0.0 1.0 50 ------- null}
h -t 0.304666666666667 -s 0 -d 1 -p tcpFriend -e 1032 -c 0 -i 58 -a 0 -x {0.0 1.0 -1 ------- null}
r -t 0.309162666666667 -s 0 -d 1 -p tcpFriend -e 1032 -c 0 -i 56 -a 0 -x {0.0 1.0 48 ------- null}
+ -t 0.309392796236738 -s 0 -d 1 -p tcpFriend -e 1032 -c 0 -i 76 -a 0 -x {0.0 1.0 66 ------- null}
- -t 0.310170666666667 -s 0 -d 1 -p tcpFriend -e 1032 -c 0 -i 60 -a 0 -x {0.0 1.0 51 ------- null}
h -t 0.310170666666667 -s 0 -d 1 -p tcpFriend -e 1032 -c 0 -i 60 -a 0 -x {0.0 1.0 -1 ------- null}
r -t 0.314666666666667 -s 0 -d 1 -p tcpFriend -e 1032 -c 0 -i 57 -a 0 -x {0.0 1.0 49 ------- null}
+ -t 0.314666666666667 -s 1 -d 0 -p tcpFriendCtl -e 40 -c 0 -i 77 -a 0 -x {1.0 0.0 49 ------- null}
- -t 0.314666666666667 -s 1 -d 0 -p tcpFriendCtl -e 40 -c 0 -i 77 -a 0 -x {1.0 0.0 49 ------- null}
h -t 0.314666666666667 -s 1 -d 0 -p tcpFriendCtl -e 40 -c 0 -i 77 -a 0 -x {1.0 0.0 -1 ------- null}
- -t 0.315674666666667 -s 0 -d 1 -p tcpFriend -e 1032 -c 0 -i 61 -a 0 -x {0.0 1.0 52 ------- null}
h -t 0.315674666666667 -s 0 -d 1 -p tcpFriend -e 1032 -c 0 -i 61 -a 0 -x {0.0 1.0 -1 ------- null}
+ -t 0.318161194355107 -s 0 -d 1 -p tcpFriend -e 1032 -c 0 -i 78 -a 0 -x {0.0 1.0 67 ------- null}
r -t 0.320170666666667 -s 0 -d 1 -p tcpFriend -e 1032 -c 0 -i 58 -a 0 -x {0.0 1.0 50 ------- null}
- -t 0.321178666666667 -s 0 -d 1 -p tcpFriend -e 1032 -c 0 -i 62 -a 0 -x {0.0 1.0 53 ------- null}
h -t 0.321178666666667 -s 0 -d 1 -p tcpFriend -e 1032 -c 0 -i 62 -a 0 -x {0.0 1.0 -1 ------- null}
r -t 0.32488 -s 1 -d 0 -p tcpFriendCtl -e 40 -c 0 -i 77 -a 0 -x {1.0 0.0 49 ------- null}
+ -t 0.32488 -s 0 -d 1 -p tcpFriend -e 1032 -c 0 -i 79 -a 0 -x {0.0 1.0 68 ------- null}
r -t 0.325674666666667 -s 0 -d 1 -p tcpFriend -e 1032 -c 0 -i 60 -a 0 -x {0.0 1.0 51 ------- null}
- -t 0.326682666666667 -s 0 -d 1 -p tcpFriend -e 1032 -c 0 -i 63 -a 0 -x {0.0 1.0 54 ------- null}
h -t 0.326682666666667 -s 0 -d 1 -p tcpFriend -e 1032 -c 0 -i 63 -a 0 -x {0.0 1.0 -1 ------- null}
r -t 0.331178666666667 -s 0 -d 1 -p tcpFriend -e 1032 -c 0 -i 61 -a 0 -x {0.0 1.0 52 ------- null}
- -t 0.332186666666667 -s 0 -d 1 -p tcpFriend -e 1032 -c 0 -i 64 -a 0 -x {0.0 1.0 55 ------- null}
h -t 0.332186666666667 -s 0 -d 1 -p tcpFriend -e 1032 -c 0 -i 64 -a 0 -x {0.0 1.0 -1 ------- null}
+ -t 0.333204031136401 -s 0 -d 1 -p tcpFriend -e 1032 -c 0 -i 80 -a 0 -x {0.0 1.0 69 ------- null}
r -t 0.336682666666667 -s 0 -d 1 -p tcpFriend -e 1032 -c 0 -i 62 -a 0 -x {0.0 1.0 53 ------- null}
- -t 0.337690666666667 -s 0 -d 1 -p tcpFriend -e 1032 -c 0 -i 65 -a 0 -x {0.0 1.0 56 ------- null}
h -t 0.337690666666667 -s 0 -d 1 -p tcpFriend -e 1032 -c 0 -i 65 -a 0 -x {0.0 1.0 -1 ------- null}
+ -t 0.341528062272802 -s 0 -d 1 -p tcpFriend -e 1032 -c 0 -i 81 -a 0 -x {0.0 1.0 70 ------- null}
r -t 0.342186666666667 -s 0 -d 1 -p tcpFriend -e 1032 -c 0 -i 63 -a 0 -x {0.0 1.0 54 ------- null}
- -t 0.343194666666667 -s 0 -d 1 -p tcpFriend -e 1032 -c 0 -i 66 -a 0 -x {0.0 1.0 57 ------- null}
h -t 0.343194666666667 -s 0 -d 1 -p tcpFriend -e 1032 -c 0 -i 66 -a 0 -x {0.0 1.0 -1 ------- null}
r -t 0.347690666666667 -s 0 -d 1 -p tcpFriend -e 1032 -c 0 -i 64 -a 0 -x {0.0 1.0 55 ------- null}
- -t 0.348698666666667 -s 0 -d 1 -p tcpFriend -e 1032 -c 0 -i 67 -a 0 -x {0.0 1.0 58 ------- null}
h -t 0.348698666666667 -s 0 -d 1 -p tcpFriend -e 1032 -c 0 -i 67 -a 0 -x {0.0 1.0 -1 ------- null}
+ -t 0.349852093409203 -s 0 -d 1 -p tcpFriend -e 1032 -c 0 -i 82 -a 0 -x {0.0 1.0 71 ------- null}
r -t 0.353194666666667 -s 0 -d 1 -p tcpFriend -e 1032 -c 0 -i 65 -a 0 -x {0.0 1.0 56 ------- null}
+ -t 0.353194666666667 -s 1 -d 0 -p tcpFriendCtl -e 40 -c 0 -i 83 -a 0 -x {1.0 0.0 56 ------- null}
- -t 0.353194666666667 -s 1 -d 0 -p tcpFriendCtl -e 40 -c 0 -i 83 -a 0 -x {1.0 0.0 56 ------- null}
h -t 0.353194666666667 -s 1 -d 0 -p tcpFriendCtl -e 40 -c 0 -i 83 -a 0 -x {1.0 0.0 -1 ------- null}
- -t 0.354202666666667 -s 0 -d 1 -p tcpFriend -e 1032 -c 0 -i 68 -a 0 -x {0.0 1.0 59 ------- null}
h -t 0.354202666666667 -s 0 -d 1 -p tcpFriend -e 1032 -c 0 -i 68 -a 0 -x {0.0 1.0 -1 ------- null}
+ -t 0.358176124545605 -s 0 -d 1 -p tcpFriend -e 1032 -c 0 -i 84 -a 0 -x {0.0 1.0 72 ------- null}
r -t 0.358698666666667 -s 0 -d 1 -p tcpFriend -e 1032 -c 0 -i 66 -a 0 -x {0.0 1.0 57 ------- null}
- -t 0.359706666666667 -s 0 -d 1 -p tcpFriend -e 1032 -c 0 -i 69 -a 0 -x {0.0 1.0 60 ------- null}
h -t 0.359706666666667 -s 0 -d 1 -p tcpFriend -e 1032 -c 0 -i 69 -a 0 -x {0.0 1.0 -1 ------- null}
r -t 0.363408 -s 1 -d 0 -p tcpFriendCtl -e 40 -c 0 -i 83 -a 0 -x {1.0 0.0 56 ------- null}
+ -t 0.363408 -s 0 -d 1 -p tcpFriend -e 1032 -c 0 -i 85 -a 0 -x {0.0 1.0 73 ------- null}