v testName tahoe2
+ 1.00504 2 3 tcp 40 ------- 0 0.0 3.0 0 0
- 1.00504 2 3 tcp 40 ------- 0 0.0 3.0 0 0
r 1.10544 2 3 tcp 40 ------- 0 0.0 3.0 0 0
+ 1.20584 2 0 ack 40 ------- 0 3.0 0.0 0 1
- 1.20584 2 0 ack 40 ------- 0 3.0 0.0 0 1
r 1.21088 2 0 ack 40 ------- 0 3.0 0.0 0 1
+ 1.21592 2 3 tcp 40 ------- 0 0.0 3.0 1 2
- 1.21592 2 3 tcp 40 ------- 0 0.0 3.0 1 2
+ 1.21692 2 3 tcp 1000 ------- 0 0.0 3.0 1 3
- 1.21692 2 3 tcp 1000 ------- 0 0.0 3.0 1 3
+ 1.21792 2 3 tcp 1000 ------- 0 0.0 3.0 961 4
- 1.22692 2 3 tcp 1000 ------- 0 0.0 3.0 961 4
r 1.31632 2 3 tcp 40 ------- 0 0.0 3.0 1 2
r 1.32692 2 3 tcp 1000 ------- 0 0.0 3.0 1 3
r 1.33692 2 3 tcp 1000 ------- 0 0.0 3.0 961 4
+ 1.42732 2 0 ack 40 ------- 0 3.0 0.0 1 5
- 1.42732 2 0 ack 40 ------- 0 3.0 0.0 1 5
r 1.43236 2 0 ack 40 ------- 0 3.0 0.0 1 5
+ 1.43732 2 0 ack 40 ------- 0 3.0 0.0 1 6
- 1.43732 2 0 ack 40 ------- 0 3.0 0.0 1 6
+ 1.43836 2 3 tcp 1000 ------- 0 0.0 3.0 1921 7
- 1.43836 2 3 tcp 1000 ------- 0 0.0 3.0 1921 7
+ 1.43936 2 3 tcp 1000 ------- 0 0.0 3.0 2881 8
r 1.44236 2 0 ack 40 ------- 0 3.0 0.0 1 6
- 1.44836 2 3 tcp 1000 ------- 0 0.0 3.0 2881 8
+ 1.44836 2 3 tcp 1000 ------- 0 0.0 3.0 3841 9
+ 1.44936 2 3 tcp 1000 ------- 0 0.0 3.0 4801 10
- 1.45836 2 3 tcp 1000 ------- 0 0.0 3.0 3841 9
- 1.46836 2 3 tcp 1000 ------- 0 0.0 3.0 4801 10
r 1.54836 2 3 tcp 1000 ------- 0 0.0 3.0 1921 7
r 1.55836 2 3 tcp 1000 ------- 0 0.0 3.0 2881 8
r 1.56836 2 3 tcp 1000 ------- 0 0.0 3.0 3841 9
r 1.57836 2 3 tcp 1000 ------- 0 0.0 3.0 4801 10
+ 1.64876 2 0 ack 40 ------- 0 3.0 0.0 1 11
- 1.64876 2 0 ack 40 ------- 0 3.0 0.0 1 11
r 1.6538 2 0 ack 40 ------- 0 3.0 0.0 1 11
+ 1.65876 2 0 ack 40 ------- 0 3.0 0.0 1 12
- 1.65876 2 0 ack 40 ------- 0 3.0 0.0 1 12
+ 1.6598 2 3 tcp 1000 ------- 0 0.0 3.0 5761 15
- 1.6598 2 3 tcp 1000 ------- 0 0.0 3.0 5761 15
+ 1.6608 2 3 tcp 1000 ------- 0 0.0 3.0 6721 16
r 1.6638 2 0 ack 40 ------- 0 3.0 0.0 1 12
+ 1.66876 2 0 ack 40 ------- 0 3.0 0.0 1 13
- 1.66876 2 0 ack 40 ------- 0 3.0 0.0 1 13
- 1.6698 2 3 tcp 1000 ------- 0 0.0 3.0 6721 16
+ 1.6698 2 3 tcp 1000 ------- 0 0.0 3.0 7681 17
+ 1.6708 2 3 tcp 1000 ------- 0 0.0 3.0 8641 18
r 1.6738 2 0 ack 40 ------- 0 3.0 0.0 1 13
+ 1.67876 2 0 ack 40 ------- 0 3.0 0.0 1 14
- 1.67876 2 0 ack 40 ------- 0 3.0 0.0 1 14
- 1.6798 2 3 tcp 1000 ------- 0 0.0 3.0 7681 17
+ 1.6798 2 3 tcp 1000 ------- 0 0.0 3.0 9601 19
+ 1.6808 2 3 tcp 1000 ------- 0 0.0 3.0 10561 20
r 1.6838 2 0 ack 40 ------- 0 3.0 0.0 1 14
- 1.6898 2 3 tcp 1000 ------- 0 0.0 3.0 8641 18
+ 1.6898 2 3 tcp 1000 ------- 0 0.0 3.0 11521 21
+ 1.6908 2 3 tcp 1000 ------- 0 0.0 3.0 12481 22
- 1.6998 2 3 tcp 1000 ------- 0 0.0 3.0 9601 19
- 1.7098 2 3 tcp 1000 ------- 0 0.0 3.0 10561 20
- 1.7198 2 3 tcp 1000 ------- 0 0.0 3.0 11521 21
- 1.7298 2 3 tcp 1000 ------- 0 0.0 3.0 12481 22
r 1.7698 2 3 tcp 1000 ------- 0 0.0 3.0 5761 15
r 1.7798 2 3 tcp 1000 ------- 0 0.0 3.0 6721 16
r 1.7898 2 3 tcp 1000 ------- 0 0.0 3.0 7681 17
r 1.7998 2 3 tcp 1000 ------- 0 0.0 3.0 8641 18
r 1.8098 2 3 tcp 1000 ------- 0 0.0 3.0 9601 19
r 1.8198 2 3 tcp 1000 ------- 0 0.0 3.0 10561 20
r 1.8298 2 3 tcp 1000 ------- 0 0.0 3.0 11521 21
r 1.8398 2 3 tcp 1000 ------- 0 0.0 3.0 12481 22
+ 1.8702 2 0 ack 40 ------- 0 3.0 0.0 1 23
- 1.8702 2 0 ack 40 ------- 0 3.0 0.0 1 23
r 1.87524 2 0 ack 40 ------- 0 3.0 0.0 1 23
+ 1.8802 2 0 ack 40 ------- 0 3.0 0.0 1 24
- 1.8802 2 0 ack 40 ------- 0 3.0 0.0 1 24
+ 1.88124 2 3 tcp 1000 ------- 0 0.0 3.0 13441 31
- 1.88124 2 3 tcp 1000 ------- 0 0.0 3.0 13441 31
+ 1.88224 2 3 tcp 1000 ------- 0 0.0 3.0 14401 32
r 1.88524 2 0 ack 40 ------- 0 3.0 0.0 1 24
+ 1.8902 2 0 ack 40 ------- 0 3.0 0.0 1 25
- 1.8902 2 0 ack 40 ------- 0 3.0 0.0 1 25
- 1.89124 2 3 tcp 1000 ------- 0 0.0 3.0 14401 32
+ 1.89124 2 3 tcp 1000 ------- 0 0.0 3.0 15361 33
+ 1.89224 2 3 tcp 1000 ------- 0 0.0 3.0 16321 34
r 1.89524 2 0 ack 40 ------- 0 3.0 0.0 1 25
+ 1.9002 2 0 ack 40 ------- 0 3.0 0.0 1 26
- 1.9002 2 0 ack 40 ------- 0 3.0 0.0 1 26
- 1.90124 2 3 tcp 1000 ------- 0 0.0 3.0 15361 33
+ 1.90124 2 3 tcp 1000 ------- 0 0.0 3.0 17281 35
+ 1.90224 2 3 tcp 1000 ------- 0 0.0 3.0 18241 36
r 1.90524 2 0 ack 40 ------- 0 3.0 0.0 1 26
+ 1.9102 2 0 ack 40 ------- 0 3.0 0.0 1 27
- 1.9102 2 0 ack 40 ------- 0 3.0 0.0 1 27
- 1.91124 2 3 tcp 1000 ------- 0 0.0 3.0 16321 34
+ 1.91124 2 3 tcp 1000 ------- 0 0.0 3.0 19201 37
+ 1.91224 2 3 tcp 1000 ------- 0 0.0 3.0 20161 38
r 1.91524 2 0 ack 40 ------- 0 3.0 0.0 1 27
+ 1.9202 2 0 ack 40 ------- 0 3.0 0.0 1 28
- 1.9202 2 0 ack 40 ------- 0 3.0 0.0 1 28
- 1.92124 2 3 tcp 1000 ------- 0 0.0 3.0 17281 35
+ 1.92124 2 3 tcp 1000 ------- 0 0.0 3.0 21121 39
+ 1.92224 2 3 tcp 1000 ------- 0 0.0 3.0 22081 40
r 1.92524 2 0 ack 40 ------- 0 3.0 0.0 1 28
+ 1.9302 2 0 ack 40 ------- 0 3.0 0.0 1 29
- 1.9302 2 0 ack 40 ------- 0 3.0 0.0 1 29
- 1.93124 2 3 tcp 1000 ------- 0 0.0 3.0 18241 36
+ 1.93124 2 3 tcp 1000 ------- 0 0.0 3.0 23041 41
+ 1.93224 2 3 tcp 1000 ------- 0 0.0 3.0 24001 42
d 1.93224 2 3 tcp 1000 ------- 0 0.0 3.0 24001 42
r 1.93524 2 0 ack 40 ------- 0 3.0 0.0 1 29
+ 1.9402 2 0 ack 40 ------- 0 3.0 0.0 1 30
- 1.9402 2 0 ack 40 ------- 0 3.0 0.0 1 30
- 1.94124 2 3 tcp 1000 ------- 0 0.0 3.0 19201 37
+ 1.94124 2 3 tcp 1000 ------- 0 0.0 3.0 24961 43
r 1.94524 2 0 ack 40 ------- 0 3.0 0.0 1 30
- 1.95124 2 3 tcp 1000 ------- 0 0.0 3.0 20161 38
+ 1.95124 2 3 tcp 1000 ------- 0 0.0 3.0 25921 44
- 1.96124 2 3 tcp 1000 ------- 0 0.0 3.0 21121 39
- 1.97124 2 3 tcp 1000 ------- 0 0.0 3.0 22081 40
- 1.98124 2 3 tcp 1000 ------- 0 0.0 3.0 23041 41
r 1.99124 2 3 tcp 1000 ------- 0 0.0 3.0 13441 31
- 1.99124 2 3 tcp 1000 ------- 0 0.0 3.0 24961 43
r 2.00124 2 3 tcp 1000 ------- 0 0.0 3.0 14401 32
- 2.00124 2 3 tcp 1000 ------- 0 0.0 3.0 25921 44
r 2.01124 2 3 tcp 1000 ------- 0 0.0 3.0 15361 33
r 2.02124 2 3 tcp 1000 ------- 0 0.0 3.0 16321 34
r 2.03124 2 3 tcp 1000 ------- 0 0.0 3.0 17281 35
r 2.04124 2 3 tcp 1000 ------- 0 0.0 3.0 18241 36
r 2.05124 2 3 tcp 1000 ------- 0 0.0 3.0 19201 37
r 2.06124 2 3 tcp 1000 ------- 0 0.0 3.0 20161 38
r 2.07124 2 3 tcp 1000 ------- 0 0.0 3.0 21121 39
r 2.08124 2 3 tcp 1000 ------- 0 0.0 3.0 22081 40
r 2.09124 2 3 tcp 1000 ------- 0 0.0 3.0 23041 41
+ 2.09164 2 0 ack 40 ------- 0 3.0 0.0 1 45
- 2.09164 2 0 ack 40 ------- 0 3.0 0.0 1 45
r 2.09668 2 0 ack 40 ------- 0 3.0 0.0 1 45
r 2.10124 2 3 tcp 1000 ------- 0 0.0 3.0 24961 43
+ 2.10164 2 0 ack 40 ------- 0 3.0 0.0 1 46
- 2.10164 2 0 ack 40 ------- 0 3.0 0.0 1 46
+ 2.10268 2 3 tcp 1000 ------- 0 0.0 3.0 26881 56
- 2.10268 2 3 tcp 1000 ------- 0 0.0 3.0 26881 56
r 2.10668 2 0 ack 40 ------- 0 3.0 0.0 1 46
r 2.11124 2 3 tcp 1000 ------- 0 0.0 3.0 25921 44
+ 2.11164 2 0 ack 40 ------- 0 3.0 0.0 1 47
- 2.11164 2 0 ack 40 ------- 0 3.0 0.0 1 47
+ 2.11268 2 3 tcp 1000 ------- 0 0.0 3.0 27841 58
- 2.11268 2 3 tcp 1000 ------- 0 0.0 3.0 27841 58
r 2.11668 2 0 ack 40 ------- 0 3.0 0.0 1 47
+ 2.12164 2 0 ack 40 ------- 0 3.0 0.0 1 48
- 2.12164 2 0 ack 40 ------- 0 3.0 0.0 1 48
+ 2.12268 2 3 tcp 1000 ------- 0 0.0 3.0 28801 60
- 2.12268 2 3 tcp 1000 ------- 0 0.0 3.0 28801 60
r 2.12668 2 0 ack 40 ------- 0 3.0 0.0 1 48
+ 2.13164 2 0 ack 40 ------- 0 3.0 0.0 1 49
- 2.13164 2 0 ack 40 ------- 0 3.0 0.0 1 49
+ 2.13268 2 3 tcp 1000 ------- 0 0.0 3.0 29761 61
- 2.13268 2 3 tcp 1000 ------- 0 0.0 3.0 29761 61
r 2.13668 2 0 ack 40 ------- 0 3.0 0.0 1 49
+ 2.14164 2 0 ack 40 ------- 0 3.0 0.0 1 50
- 2.14164 2 0 ack 40 ------- 0 3.0 0.0 1 50
+ 2.14268 2 3 tcp 1000 ------- 0 0.0 3.0 30721 62
- 2.14268 2 3 tcp 1000 ------- 0 0.0 3.0 30721 62
r 2.14668 2 0 ack 40 ------- 0 3.0 0.0 1 50
+ 2.15164 2 0 ack 40 ------- 0 3.0 0.0 1 51
- 2.15164 2 0 ack 40 ------- 0 3.0 0.0 1 51
+ 2.15268 2 3 tcp 1000 ------- 0 0.0 3.0 31681 63
- 2.15268 2 3 tcp 1000 ------- 0 0.0 3.0 31681 63
r 2.15668 2 0 ack 40 ------- 0 3.0 0.0 1 51
+ 2.16164 2 0 ack 40 ------- 0 3.0 0.0 1 52
- 2.16164 2 0 ack 40 ------- 0 3.0 0.0 1 52
+ 2.16268 2 3 tcp 1000 ------- 0 0.0 3.0 32641 64
- 2.16268 2 3 tcp 1000 ------- 0 0.0 3.0 32641 64
r 2.16668 2 0 ack 40 ------- 0 3.0 0.0 1 52
+ 2.17164 2 0 ack 40 ------- 0 3.0 0.0 1 53
- 2.17164 2 0 ack 40 ------- 0 3.0 0.0 1 53
+ 2.17268 2 3 tcp 1000 ------- 0 0.0 3.0 33601 65
- 2.17268 2 3 tcp 1000 ------- 0 0.0 3.0 33601 65
r 2.17668 2 0 ack 40 ------- 0 3.0 0.0 1 53
+ 2.18164 2 0 ack 40 ------- 0 3.0 0.0 1 54
- 2.18164 2 0 ack 40 ------- 0 3.0 0.0 1 54
+ 2.18268 2 3 tcp 1000 ------- 0 0.0 3.0 34561 66
- 2.18268 2 3 tcp 1000 ------- 0 0.0 3.0 34561 66
r 2.18668 2 0 ack 40 ------- 0 3.0 0.0 1 54
+ 2.19164 2 0 ack 40 ------- 0 3.0 0.0 1 55
- 2.19164 2 0 ack 40 ------- 0 3.0 0.0 1 55
+ 2.19268 2 3 tcp 1000 ------- 0 0.0 3.0 35521 67
- 2.19268 2 3 tcp 1000 ------- 0 0.0 3.0 35521 67
r 2.19668 2 0 ack 40 ------- 0 3.0 0.0 1 55
+ 2.20164 2 0 ack 40 ------- 0 3.0 0.0 1 57
- 2.20164 2 0 ack 40 ------- 0 3.0 0.0 1 57
+ 2.20268 2 3 tcp 1000 ------- 0 0.0 3.0 36481 68
- 2.20268 2 3 tcp 1000 ------- 0 0.0 3.0 36481 68
r 2.20668 2 0 ack 40 ------- 0 3.0 0.0 1 57
+ 2.21164 2 0 ack 40 ------- 0 3.0 0.0 1 59
- 2.21164 2 0 ack 40 ------- 0 3.0 0.0 1 59
r 2.21268 2 3 tcp 1000 ------- 0 0.0 3.0 26881 56
r 2.21668 2 0 ack 40 ------- 0 3.0 0.0 1 59
r 2.22268 2 3 tcp 1000 ------- 0 0.0 3.0 27841 58
r 2.23268 2 3 tcp 1000 ------- 0 0.0 3.0 28801 60
r 2.24268 2 3 tcp 1000 ------- 0 0.0 3.0 29761 61
r 2.25268 2 3 tcp 1000 ------- 0 0.0 3.0 30721 62
r 2.26268 2 3 tcp 1000 ------- 0 0.0 3.0 31681 63
r 2.27268 2 3 tcp 1000 ------- 0 0.0 3.0 32641 64
r 2.28268 2 3 tcp 1000 ------- 0 0.0 3.0 33601 65
r 2.29268 2 3 tcp 1000 ------- 0 0.0 3.0 34561 66
r 2.30268 2 3 tcp 1000 ------- 0 0.0 3.0 35521 67
r 2.31268 2 3 tcp 1000 ------- 0 0.0 3.0 36481 68
+ 2.31308 2 0 ack 40 ------- 0 3.0 0.0 1 69
- 2.31308 2 0 ack 40 ------- 0 3.0 0.0 1 69
r 2.31812 2 0 ack 40 ------- 0 3.0 0.0 1 69
+ 2.32308 2 0 ack 40 ------- 0 3.0 0.0 1 70
- 2.32308 2 0 ack 40 ------- 0 3.0 0.0 1 70
+ 2.32412 2 3 tcp 1000 ------- 0 0.0 3.0 24001 80
- 2.32412 2 3 tcp 1000 ------- 0 0.0 3.0 24001 80
r 2.32812 2 0 ack 40 ------- 0 3.0 0.0 1 70
+ 2.33308 2 0 ack 40 ------- 0 3.0 0.0 1 71
- 2.33308 2 0 ack 40 ------- 0 3.0 0.0 1 71
r 2.33812 2 0 ack 40 ------- 0 3.0 0.0 1 71
+ 2.34308 2 0 ack 40 ------- 0 3.0 0.0 1 72
- 2.34308 2 0 ack 40 ------- 0 3.0 0.0 1 72
r 2.34812 2 0 ack 40 ------- 0 3.0 0.0 1 72
+ 2.35308 2 0 ack 40 ------- 0 3.0 0.0 1 73
- 2.35308 2 0 ack 40 ------- 0 3.0 0.0 1 73
r 2.35812 2 0 ack 40 ------- 0 3.0 0.0 1 73
+ 2.36308 2 0 ack 40 ------- 0 3.0 0.0 1 74
- 2.36308 2 0 ack 40 ------- 0 3.0 0.0 1 74
r 2.36812 2 0 ack 40 ------- 0 3.0 0.0 1 74
+ 2.37308 2 0 ack 40 ------- 0 3.0 0.0 1 75
- 2.37308 2 0 ack 40 ------- 0 3.0 0.0 1 75
r 2.37812 2 0 ack 40 ------- 0 3.0 0.0 1 75
+ 2.38308 2 0 ack 40 ------- 0 3.0 0.0 1 76
- 2.38308 2 0 ack 40 ------- 0 3.0 0.0 1 76
r 2.38812 2 0 ack 40 ------- 0 3.0 0.0 1 76
+ 2.39308 2 0 ack 40 ------- 0 3.0 0.0 1 77
- 2.39308 2 0 ack 40 ------- 0 3.0 0.0 1 77
r 2.39812 2 0 ack 40 ------- 0 3.0 0.0 1 77
+ 2.40308 2 0 ack 40 ------- 0 3.0 0.0 1 78
- 2.40308 2 0 ack 40 ------- 0 3.0 0.0 1 78
r 2.40812 2 0 ack 40 ------- 0 3.0 0.0 1 78
+ 2.41308 2 0 ack 40 ------- 0 3.0 0.0 1 79
- 2.41308 2 0 ack 40 ------- 0 3.0 0.0 1 79
r 2.41812 2 0 ack 40 ------- 0 3.0 0.0 1 79
r 2.43412 2 3 tcp 1000 ------- 0 0.0 3.0 24001 80
+ 2.53452 2 0 ack 40 ------- 0 3.0 0.0 1 81
- 2.53452 2 0 ack 40 ------- 0 3.0 0.0 1 81
r 2.53956 2 0 ack 40 ------- 0 3.0 0.0 1 81
+ 2.54556 2 3 tcp 1000 ---A--- 0 0.0 3.0 37441 82
- 2.54556 2 3 tcp 1000 ---A--- 0 0.0 3.0 37441 82
+ 2.54656 2 3 tcp 1000 ------- 0 0.0 3.0 38401 83
- 2.55556 2 3 tcp 1000 ------- 0 0.0 3.0 38401 83
r 2.65556 2 3 tcp 1000 ---A--- 0 0.0 3.0 37441 82
r 2.66556 2 3 tcp 1000 ------- 0 0.0 3.0 38401 83
+ 2.75596 2 0 ack 40 ------- 0 3.0 0.0 1 84
- 2.75596 2 0 ack 40 ------- 0 3.0 0.0 1 84
r 2.761 2 0 ack 40 ------- 0 3.0 0.0 1 84
+ 2.76596 2 0 ack 40 ------- 0 3.0 0.0 1 85
- 2.76596 2 0 ack 40 ------- 0 3.0 0.0 1 85
+ 2.767 2 3 tcp 1000 ------- 0 0.0 3.0 39361 86
- 2.767 2 3 tcp 1000 ------- 0 0.0 3.0 39361 86
+ 2.768 2 3 tcp 1000 ------- 0 0.0 3.0 40321 87
r 2.771 2 0 ack 40 ------- 0 3.0 0.0 1 85
- 2.777 2 3 tcp 1000 ------- 0 0.0 3.0 40321 87
+ 2.777 2 3 tcp 1000 ------- 0 0.0 3.0 41281 88
+ 2.778 2 3 tcp 1000 ------- 0 0.0 3.0 42241 89
- 2.787 2 3 tcp 1000 ------- 0 0.0 3.0 41281 88
- 2.797 2 3 tcp 1000 ------- 0 0.0 3.0 42241 89
r 2.877 2 3 tcp 1000 ------- 0 0.0 3.0 39361 86
r 2.887 2 3 tcp 1000 ------- 0 0.0 3.0 40321 87
r 2.897 2 3 tcp 1000 ------- 0 0.0 3.0 41281 88
r 2.907 2 3 tcp 1000 ------- 0 0.0 3.0 42241 89
+ 2.9774 2 0 ack 40 ------- 0 3.0 0.0 1 90
- 2.9774 2 0 ack 40 ------- 0 3.0 0.0 1 90
r 2.98244 2 0 ack 40 ------- 0 3.0 0.0 1 90
+ 2.9874 2 0 ack 40 ------- 0 3.0 0.0 1 91
- 2.9874 2 0 ack 40 ------- 0 3.0 0.0 1 91
+ 2.98844 2 3 tcp 1000 ------- 0 0.0 3.0 43201 94
- 2.98844 2 3 tcp 1000 ------- 0 0.0 3.0 43201 94
+ 2.98944 2 3 tcp 1000 ------- 0 0.0 3.0 44161 95
r 2.99244 2 0 ack 40 ------- 0 3.0 0.0 1 91
+ 2.9974 2 0 ack 40 ------- 0 3.0 0.0 1 92
- 2.9974 2 0 ack 40 ------- 0 3.0 0.0 1 92
- 2.99844 2 3 tcp 1000 ------- 0 0.0 3.0 44161 95
+ 2.99844 2 3 tcp 1000 ------- 0 0.0 3.0 45121 96
+ 2.99944 2 3 tcp 1000 ------- 0 0.0 3.0 46081 97
r 3.00244 2 0 ack 40 ------- 0 3.0 0.0 1 92
+ 3.0074 2 0 ack 40 ------- 0 3.0 0.0 1 93
- 3.0074 2 0 ack 40 ------- 0 3.0 0.0 1 93
- 3.00844 2 3 tcp 1000 ------- 0 0.0 3.0 45121 96
+ 3.00844 2 3 tcp 1000 ------- 0 0.0 3.0 47041 98
+ 3.00944 2 3 tcp 1000 ------- 0 0.0 3.0 48001 99
r 3.01244 2 0 ack 40 ------- 0 3.0 0.0 1 93
- 3.01844 2 3 tcp 1000 ------- 0 0.0 3.0 46081 97
+ 3.01844 2 3 tcp 1000 ------- 0 0.0 3.0 48961 100
- 3.02844 2 3 tcp 1000 ------- 0 0.0 3.0 47041 98
- 3.03844 2 3 tcp 1000 ------- 0 0.0 3.0 48001 99
- 3.04844 2 3 tcp 1000 ------- 0 0.0 3.0 48961 100
r 3.09844 2 3 tcp 1000 ------- 0 0.0 3.0 43201 94
r 3.10844 2 3 tcp 1000 ------- 0 0.0 3.0 44161 95
r 3.11844 2 3 tcp 1000 ------- 0 0.0 3.0 45121 96
r 3.12844 2 3 tcp 1000 ------- 0 0.0 3.0 46081 97
r 3.13844 2 3 tcp 1000 ------- 0 0.0 3.0 47041 98
r 3.14844 2 3 tcp 1000 ------- 0 0.0 3.0 48001 99
r 3.15844 2 3 tcp 1000 ------- 0 0.0 3.0 48961 100
+ 3.19884 2 0 ack 40 ------- 0 3.0 0.0 1 101
- 3.19884 2 0 ack 40 ------- 0 3.0 0.0 1 101
r 3.20388 2 0 ack 40 ------- 0 3.0 0.0 1 101
+ 3.20884 2 0 ack 40 ------- 0 3.0 0.0 1 102
- 3.20884 2 0 ack 40 ------- 0 3.0 0.0 1 102
+ 3.20988 2 3 tcp 1000 ------- 0 0.0 3.0 49921 108
- 3.20988 2 3 tcp 1000 ------- 0 0.0 3.0 49921 108
r 3.21388 2 0 ack 40 ------- 0 3.0 0.0 1 102
+ 3.21884 2 0 ack 40 ------- 0 3.0 0.0 1 103
- 3.21884 2 0 ack 40 ------- 0 3.0 0.0 1 103
+ 3.21988 2 3 tcp 1000 ------- 0 0.0 3.0 50881 109
- 3.21988 2 3 tcp 1000 ------- 0 0.0 3.0 50881 109
r 3.22388 2 0 ack 40 ------- 0 3.0 0.0 1 103
+ 3.22884 2 0 ack 40 ------- 0 3.0 0.0 1 104
- 3.22884 2 0 ack 40 ------- 0 3.0 0.0 1 104
+ 3.22988 2 3 tcp 1000 ------- 0 0.0 3.0 51841 110
- 3.22988 2 3 tcp 1000 ------- 0 0.0 3.0 51841 110
r 3.23388 2 0 ack 40 ------- 0 3.0 0.0 1 104
+ 3.23884 2 0 ack 40 ------- 0 3.0 0.0 1 105
- 3.23884 2 0 ack 40 ------- 0 3.0 0.0 1 105
+ 3.23988 2 3 tcp 1000 ------- 0 0.0 3.0 52801 111
- 3.23988 2 3 tcp 1000 ------- 0 0.0 3.0 52801 111
r 3.24388 2 0 ack 40 ------- 0 3.0 0.0 1 105
+ 3.24884 2 0 ack 40 ------- 0 3.0 0.0 1 106
- 3.24884 2 0 ack 40 ------- 0 3.0 0.0 1 106
+ 3.24988 2 3 tcp 1000 ------- 0 0.0 3.0 53761 112
- 3.24988 2 3 tcp 1000 ------- 0 0.0 3.0 53761 112
r 3.25388 2 0 ack 40 ------- 0 3.0 0.0 1 106
+ 3.25884 2 0 ack 40 ------- 0 3.0 0.0 1 107
- 3.25884 2 0 ack 40 ------- 0 3.0 0.0 1 107
+ 3.25988 2 3 tcp 1000 ------- 0 0.0 3.0 54721 113
- 3.25988 2 3 tcp 1000 ------- 0 0.0 3.0 54721 113
r 3.26388 2 0 ack 40 ------- 0 3.0 0.0 1 107
+ 3.26988 2 3 tcp 1000 ------- 0 0.0 3.0 55681 114
- 3.26988 2 3 tcp 1000 ------- 0 0.0 3.0 55681 114
+ 3.27088 2 3 tcp 1000 ------- 0 0.0 3.0 56641 115
- 3.27988 2 3 tcp 1000 ------- 0 0.0 3.0 56641 115
r 3.31988 2 3 tcp 1000 ------- 0 0.0 3.0 49921 108
r 3.32988 2 3 tcp 1000 ------- 0 0.0 3.0 50881 109
r 3.33988 2 3 tcp 1000 ------- 0 0.0 3.0 51841 110
r 3.34988 2 3 tcp 1000 ------- 0 0.0 3.0 52801 111
r 3.35988 2 3 tcp 1000 ------- 0 0.0 3.0 53761 112
r 3.36988 2 3 tcp 1000 ------- 0 0.0 3.0 54721 113
r 3.37988 2 3 tcp 1000 ------- 0 0.0 3.0 55681 114
r 3.38988 2 3 tcp 1000 ------- 0 0.0 3.0 56641 115
+ 3.42028 2 0 ack 40 ------- 0 3.0 0.0 1 116
- 3.42028 2 0 ack 40 ------- 0 3.0 0.0 1 116
r 3.42532 2 0 ack 40 ------- 0 3.0 0.0 1 116
+ 3.43028 2 0 ack 40 ------- 0 3.0 0.0 1 117
- 3.43028 2 0 ack 40 ------- 0 3.0 0.0 1 117
+ 3.43132 2 3 tcp 1000 ------- 0 0.0 3.0 57601 124
- 3.43132 2 3 tcp 1000 ------- 0 0.0 3.0 57601 124
r 3.43532 2 0 ack 40 ------- 0 3.0 0.0 1 117
+ 3.44028 2 0 ack 40 ------- 0 3.0 0.0 1 118
- 3.44028 2 0 ack 40 ------- 0 3.0 0.0 1 118
+ 3.44132 2 3 tcp 1000 ------- 0 0.0 3.0 58561 125
- 3.44132 2 3 tcp 1000 ------- 0 0.0 3.0 58561 125
r 3.44532 2 0 ack 40 ------- 0 3.0 0.0 1 118
+ 3.45028 2 0 ack 40 ------- 0 3.0 0.0 1 119
- 3.45028 2 0 ack 40 ------- 0 3.0 0.0 1 119
+ 3.45132 2 3 tcp 1000 ------- 0 0.0 3.0 59521 126
- 3.45132 2 3 tcp 1000 ------- 0 0.0 3.0 59521 126
r 3.45532 2 0 ack 40 ------- 0 3.0 0.0 1 119
+ 3.46028 2 0 ack 40 ------- 0 3.0 0.0 1 120
- 3.46028 2 0 ack 40 ------- 0 3.0 0.0 1 120
+ 3.46132 2 3 tcp 1000 ------- 0 0.0 3.0 60481 127
- 3.46132 2 3 tcp 1000 ------- 0 0.0 3.0 60481 127
r 3.46532 2 0 ack 40 ------- 0 3.0 0.0 1 120
+ 3.47028 2 0 ack 40 ------- 0 3.0 0.0 1 121
- 3.47028 2 0 ack 40 ------- 0 3.0 0.0 1 121
+ 3.47132 2 3 tcp 1000 ------- 0 0.0 3.0 61441 128
- 3.47132 2 3 tcp 1000 ------- 0 0.0 3.0 61441 128
r 3.47532 2 0 ack 40 ------- 0 3.0 0.0 1 121
+ 3.48028 2 0 ack 40 ------- 0 3.0 0.0 1 122
- 3.48028 2 0 ack 40 ------- 0 3.0 0.0 1 122
+ 3.48132 2 3 tcp 1000 ------- 0 0.0 3.0 62401 129
- 3.48132 2 3 tcp 1000 ------- 0 0.0 3.0 62401 129
r 3.48532 2 0 ack 40 ------- 0 3.0 0.0 1 122
+ 3.49028 2 0 ack 40 ------- 0 3.0 0.0 1 123
- 3.49028 2 0 ack 40 ------- 0 3.0 0.0 1 123
+ 3.49132 2 3 tcp 1000 ------- 0 0.0 3.0 63361 130
- 3.49132 2 3 tcp 1000 ------- 0 0.0 3.0 63361 130
r 3.49532 2 0 ack 40 ------- 0 3.0 0.0 1 123
+ 3.50132 2 3 tcp 1000 ------- 0 0.0 3.0 64321 131
- 3.50132 2 3 tcp 1000 ------- 0 0.0 3.0 64321 131
+ 3.50232 2 3 tcp 1000 ------- 0 0.0 3.0 65281 132
- 3.51132 2 3 tcp 1000 ------- 0 0.0 3.0 65281 132
r 3.54132 2 3 tcp 1000 ------- 0 0.0 3.0 57601 124
r 3.55132 2 3 tcp 1000 ------- 0 0.0 3.0 58561 125
r 3.56132 2 3 tcp 1000 ------- 0 0.0 3.0 59521 126
r 3.57132 2 3 tcp 1000 ------- 0 0.0 3.0 60481 127
r 3.58132 2 3 tcp 1000 ------- 0 0.0 3.0 61441 128
r 3.59132 2 3 tcp 1000 ------- 0 0.0 3.0 62401 129
r 3.60132 2 3 tcp 1000 ------- 0 0.0 3.0 63361 130
r 3.61132 2 3 tcp 1000 ------- 0 0.0 3.0 64321 131
r 3.62132 2 3 tcp 1000 ------- 0 0.0 3.0 65281 132
+ 3.64172 2 0 ack 40 ------- 0 3.0 0.0 1 133
- 3.64172 2 0 ack 40 ------- 0 3.0 0.0 1 133
r 3.64676 2 0 ack 40 ------- 0 3.0 0.0 1 133
+ 3.65172 2 0 ack 40 ------- 0 3.0 0.0 1 134
- 3.65172 2 0 ack 40 ------- 0 3.0 0.0 1 134
+ 3.65276 2 3 tcp 1000 ------- 0 0.0 3.0 66241 142
- 3.65276 2 3 tcp 1000 ------- 0 0.0 3.0 66241 142
r 3.65676 2 0 ack 40 ------- 0 3.0 0.0 1 134
+ 3.66172 2 0 ack 40 ------- 0 3.0 0.0 1 135
- 3.66172 2 0 ack 40 ------- 0 3.0 0.0 1 135
+ 3.66276 2 3 tcp 1000 ------- 0 0.0 3.0 67201 143
- 3.66276 2 3 tcp 1000 ------- 0 0.0 3.0 67201 143
r 3.66676 2 0 ack 40 ------- 0 3.0 0.0 1 135
+ 3.67172 2 0 ack 40 ------- 0 3.0 0.0 1 136
- 3.67172 2 0 ack 40 ------- 0 3.0 0.0 1 136
+ 3.67276 2 3 tcp 1000 ------- 0 0.0 3.0 68161 144
- 3.67276 2 3 tcp 1000 ------- 0 0.0 3.0 68161 144
r 3.67676 2 0 ack 40 ------- 0 3.0 0.0 1 136
+ 3.68172 2 0 ack 40 ------- 0 3.0 0.0 1 137
- 3.68172 2 0 ack 40 ------- 0 3.0 0.0 1 137
+ 3.68276 2 3 tcp 1000 ------- 0 0.0 3.0 69121 145
- 3.68276 2 3 tcp 1000 ------- 0 0.0 3.0 69121 145
r 3.68676 2 0 ack 40 ------- 0 3.0 0.0 1 137
+ 3.69172 2 0 ack 40 ------- 0 3.0 0.0 1 138
- 3.69172 2 0 ack 40 ------- 0 3.0 0.0 1 138
+ 3.69276 2 3 tcp 1000 ------- 0 0.0 3.0 70081 146
- 3.69276 2 3 tcp 1000 ------- 0 0.0 3.0 70081 146
r 3.69676 2 0 ack 40 ------- 0 3.0 0.0 1 138
+ 3.70172 2 0 ack 40 ------- 0 3.0 0.0 1 139
- 3.70172 2 0 ack 40 ------- 0 3.0 0.0 1 139
+ 3.70276 2 3 tcp 1000 ------- 0 0.0 3.0 71041 147
- 3.70276 2 3 tcp 1000 ------- 0 0.0 3.0 71041 147
r 3.70676 2 0 ack 40 ------- 0 3.0 0.0 1 139
+ 3.71172 2 0 ack 40 ------- 0 3.0 0.0 1 140
- 3.71172 2 0 ack 40 ------- 0 3.0 0.0 1 140
+ 3.71276 2 3 tcp 1000 ------- 0 0.0 3.0 72001 148
- 3.71276 2 3 tcp 1000 ------- 0 0.0 3.0 72001 148
r 3.71676 2 0 ack 40 ------- 0 3.0 0.0 1 140
+ 3.72172 2 0 ack 40 ------- 0 3.0 0.0 1 141
- 3.72172 2 0 ack 40 ------- 0 3.0 0.0 1 141
+ 3.72276 2 3 tcp 1000 ------- 0 0.0 3.0 72961 149
- 3.72276 2 3 tcp 1000 ------- 0 0.0 3.0 72961 149
r 3.72676 2 0 ack 40 ------- 0 3.0 0.0 1 141
+ 3.73276 2 3 tcp 1000 ------- 0 0.0 3.0 73921 150
- 3.73276 2 3 tcp 1000 ------- 0 0.0 3.0 73921 150
r 3.76276 2 3 tcp 1000 ------- 0 0.0 3.0 66241 142
r 3.77276 2 3 tcp 1000 ------- 0 0.0 3.0 67201 143
r 3.78276 2 3 tcp 1000 ------- 0 0.0 3.0 68161 144
r 3.79276 2 3 tcp 1000 ------- 0 0.0 3.0 69121 145
r 3.80276 2 3 tcp 1000 ------- 0 0.0 3.0 70081 146
r 3.81276 2 3 tcp 1000 ------- 0 0.0 3.0 71041 147
r 3.82276 2 3 tcp 1000 ------- 0 0.0 3.0 72001 148
r 3.83276 2 3 tcp 1000 ------- 0 0.0 3.0 72961 149
r 3.84276 2 3 tcp 1000 ------- 0 0.0 3.0 73921 150
+ 3.86316 2 0 ack 40 ------- 0 3.0 0.0 1 151
- 3.86316 2 0 ack 40 ------- 0 3.0 0.0 1 151
r 3.8682 2 0 ack 40 ------- 0 3.0 0.0 1 151
+ 3.87316 2 0 ack 40 ------- 0 3.0 0.0 1 152
- 3.87316 2 0 ack 40 ------- 0 3.0 0.0 1 152
+ 3.8742 2 3 tcp 1000 ------- 0 0.0 3.0 74881 160
- 3.8742 2 3 tcp 1000 ------- 0 0.0 3.0 74881 160
+ 3.8752 2 3 tcp 1000 ------- 0 0.0 3.0 75841 161
r 3.8782 2 0 ack 40 ------- 0 3.0 0.0 1 152
+ 3.88316 2 0 ack 40 ------- 0 3.0 0.0 1 153
- 3.88316 2 0 ack 40 ------- 0 3.0 0.0 1 153
- 3.8842 2 3 tcp 1000 ------- 0 0.0 3.0 75841 161
+ 3.8842 2 3 tcp 1000 ------- 0 0.0 3.0 76801 162
r 3.8882 2 0 ack 40 ------- 0 3.0 0.0 1 153
+ 3.89316 2 0 ack 40 ------- 0 3.0 0.0 1 154
- 3.89316 2 0 ack 40 ------- 0 3.0 0.0 1 154
- 3.8942 2 3 tcp 1000 ------- 0 0.0 3.0 76801 162
+ 3.8942 2 3 tcp 1000 ------- 0 0.0 3.0 77761 163
r 3.8982 2 0 ack 40 ------- 0 3.0 0.0 1 154
+ 3.90316 2 0 ack 40 ------- 0 3.0 0.0 1 155
- 3.90316 2 0 ack 40 ------- 0 3.0 0.0 1 155
- 3.9042 2 3 tcp 1000 ------- 0 0.0 3.0 77761 163
+ 3.9042 2 3 tcp 1000 ------- 0 0.0 3.0 78721 164
r 3.9082 2 0 ack 40 ------- 0 3.0 0.0 1 155
+ 3.91316 2 0 ack 40 ------- 0 3.0 0.0 1 156
- 3.91316 2 0 ack 40 ------- 0 3.0 0.0 1 156
- 3.9142 2 3 tcp 1000 ------- 0 0.0 3.0 78721 164
+ 3.9142 2 3 tcp 1000 ------- 0 0.0 3.0 79681 165
r 3.9182 2 0 ack 40 ------- 0 3.0 0.0 1 156
+ 3.92316 2 0 ack 40 ------- 0 3.0 0.0 1 157
- 3.92316 2 0 ack 40 ------- 0 3.0 0.0 1 157
- 3.9242 2 3 tcp 1000 ------- 0 0.0 3.0 79681 165
+ 3.9242 2 3 tcp 1000 ------- 0 0.0 3.0 80641 166
r 3.9282 2 0 ack 40 ------- 0 3.0 0.0 1 157
+ 3.93316 2 0 ack 40 ------- 0 3.0 0.0 1 158
- 3.93316 2 0 ack 40 ------- 0 3.0 0.0 1 158
- 3.9342 2 3 tcp 1000 ------- 0 0.0 3.0 80641 166
+ 3.9342 2 3 tcp 1000 ------- 0 0.0 3.0 81601 167
r 3.9382 2 0 ack 40 ------- 0 3.0 0.0 1 158
+ 3.94316 2 0 ack 40 ------- 0 3.0 0.0 1 159
- 3.94316 2 0 ack 40 ------- 0 3.0 0.0 1 159
- 3.9442 2 3 tcp 1000 ------- 0 0.0 3.0 81601 167
+ 3.9442 2 3 tcp 1000 ------- 0 0.0 3.0 82561 168
r 3.9482 2 0 ack 40 ------- 0 3.0 0.0 1 159
- 3.9542 2 3 tcp 1000 ------- 0 0.0 3.0 82561 168
+ 3.9542 2 3 tcp 1000 ------- 0 0.0 3.0 83521 169
- 3.9642 2 3 tcp 1000 ------- 0 0.0 3.0 83521 169
r 3.9842 2 3 tcp 1000 ------- 0 0.0 3.0 74881 160
r 3.9942 2 3 tcp 1000 ------- 0 0.0 3.0 75841 161
r 4.0042 2 3 tcp 1000 ------- 0 0.0 3.0 76801 162
r 4.0142 2 3 tcp 1000 ------- 0 0.0 3.0 77761 163
r 4.0242 2 3 tcp 1000 ------- 0 0.0 3.0 78721 164
r 4.0342 2 3 tcp 1000 ------- 0 0.0 3.0 79681 165
r 4.0442 2 3 tcp 1000 ------- 0 0.0 3.0 80641 166
r 4.0542 2 3 tcp 1000 ------- 0 0.0 3.0 81601 167
r 4.0642 2 3 tcp 1000 ------- 0 0.0 3.0 82561 168
r 4.0742 2 3 tcp 1000 ------- 0 0.0 3.0 83521 169
+ 4.0846 2 0 ack 40 ------- 0 3.0 0.0 1 170
- 4.0846 2 0 ack 40 ------- 0 3.0 0.0 1 170
r 4.08964 2 0 ack 40 ------- 0 3.0 0.0 1 170
+ 4.0946 2 0 ack 40 ------- 0 3.0 0.0 1 171
- 4.0946 2 0 ack 40 ------- 0 3.0 0.0 1 171
+ 4.09564 2 3 tcp 1000 ------- 0 0.0 3.0 84481 180
- 4.09564 2 3 tcp 1000 ------- 0 0.0 3.0 84481 180
r 4.09964 2 0 ack 40 ------- 0 3.0 0.0 1 171
+ 4.1046 2 0 ack 40 ------- 0 3.0 0.0 1 172
- 4.1046 2 0 ack 40 ------- 0 3.0 0.0 1 172
+ 4.10564 2 3 tcp 1000 ------- 0 0.0 3.0 85441 181
- 4.10564 2 3 tcp 1000 ------- 0 0.0 3.0 85441 181
+ 4.10664 2 3 tcp 1000 ------- 0 0.0 3.0 86401 182
r 4.10964 2 0 ack 40 ------- 0 3.0 0.0 1 172
+ 4.1146 2 0 ack 40 ------- 0 3.0 0.0 1 173
- 4.1146 2 0 ack 40 ------- 0 3.0 0.0 1 173
- 4.11564 2 3 tcp 1000 ------- 0 0.0 3.0 86401 182
+ 4.11564 2 3 tcp 1000 ------- 0 0.0 3.0 87361 183
r 4.11964 2 0 ack 40 ------- 0 3.0 0.0 1 173
+ 4.1246 2 0 ack 40 ------- 0 3.0 0.0 1 174
- 4.1246 2 0 ack 40 ------- 0 3.0 0.0 1 174
- 4.12564 2 3 tcp 1000 ------- 0 0.0 3.0 87361 183
+ 4.12564 2 3 tcp 1000 ------- 0 0.0 3.0 88321 184
r 4.12964 2 0 ack 40 ------- 0 3.0 0.0 1 174
+ 4.1346 2 0 ack 40 ------- 0 3.0 0.0 1 175
- 4.1346 2 0 ack 40 ------- 0 3.0 0.0 1 175
- 4.13564 2 3 tcp 1000 ------- 0 0.0 3.0 88321 184
+ 4.13564 2 3 tcp 1000 ------- 0 0.0 3.0 89281 185
r 4.13964 2 0 ack 40 ------- 0 3.0 0.0 1 175
+ 4.1446 2 0 ack 40 ------- 0 3.0 0.0 1 176
- 4.1446 2 0 ack 40 ------- 0 3.0 0.0 1 176
- 4.14564 2 3 tcp 1000 ------- 0 0.0 3.0 89281 185
+ 4.14564 2 3 tcp 1000 ------- 0 0.0 3.0 90241 186
r 4.14964 2 0 ack 40 ------- 0 3.0 0.0 1 176
+ 4.1546 2 0 ack 40 ------- 0 3.0 0.0 1 177
- 4.1546 2 0 ack 40 ------- 0 3.0 0.0 1 177
- 4.15564 2 3 tcp 1000 ------- 0 0.0 3.0 90241 186
+ 4.15564 2 3 tcp 1000 ------- 0 0.0 3.0 91201 187
r 4.15964 2 0 ack 40 ------- 0 3.0 0.0 1 177
+ 4.1646 2 0 ack 40 ------- 0 3.0 0.0 1 178
- 4.1646 2 0 ack 40 ------- 0 3.0 0.0 1 178
- 4.16564 2 3 tcp 1000 ------- 0 0.0 3.0 91201 187
+ 4.16564 2 3 tcp 1000 ------- 0 0.0 3.0 92161 188
r 4.16964 2 0 ack 40 ------- 0 3.0 0.0 1 178
+ 4.1746 2 0 ack 40 ------- 0 3.0 0.0 1 179
- 4.1746 2 0 ack 40 ------- 0 3.0 0.0 1 179
- 4.17564 2 3 tcp 1000 ------- 0 0.0 3.0 92161 188
+ 4.17564 2 3 tcp 1000 ------- 0 0.0 3.0 93121 189
r 4.17964 2 0 ack 40 ------- 0 3.0 0.0 1 179
- 4.18564 2 3 tcp 1000 ------- 0 0.0 3.0 93121 189
+ 4.18564 2 3 tcp 1000 ------- 0 0.0 3.0 94081 190
- 4.19564 2 3 tcp 1000 ------- 0 0.0 3.0 94081 190
r 4.20564 2 3 tcp 1000 ------- 0 0.0 3.0 84481 180
r 4.21564 2 3 tcp 1000 ------- 0 0.0 3.0 85441 181
r 4.22564 2 3 tcp 1000 ------- 0 0.0 3.0 86401 182
r 4.23564 2 3 tcp 1000 ------- 0 0.0 3.0 87361 183
r 4.24564 2 3 tcp 1000 ------- 0 0.0 3.0 88321 184
r 4.25564 2 3 tcp 1000 ------- 0 0.0 3.0 89281 185
r 4.26564 2 3 tcp 1000 ------- 0 0.0 3.0 90241 186
r 4.27564 2 3 tcp 1000 ------- 0 0.0 3.0 91201 187
r 4.28564 2 3 tcp 1000 ------- 0 0.0 3.0 92161 188
r 4.29564 2 3 tcp 1000 ------- 0 0.0 3.0 93121 189
r 4.30564 2 3 tcp 1000 ------- 0 0.0 3.0 94081 190
+ 4.30604 2 0 ack 40 ------- 0 3.0 0.0 1 191
- 4.30604 2 0 ack 40 ------- 0 3.0 0.0 1 191
r 4.31108 2 0 ack 40 ------- 0 3.0 0.0 1 191
+ 4.31604 2 0 ack 40 ------- 0 3.0 0.0 1 192
- 4.31604 2 0 ack 40 ------- 0 3.0 0.0 1 192
+ 4.31708 2 3 tcp 1000 ------- 0 0.0 3.0 95041 202
- 4.31708 2 3 tcp 1000 ------- 0 0.0 3.0 95041 202
r 4.32108 2 0 ack 40 ------- 0 3.0 0.0 1 192
+ 4.32604 2 0 ack 40 ------- 0 3.0 0.0 1 193
- 4.32604 2 0 ack 40 ------- 0 3.0 0.0 1 193
+ 4.32708 2 3 tcp 1000 ------- 0 0.0 3.0 96001 203
- 4.32708 2 3 tcp 1000 ------- 0 0.0 3.0 96001 203
r 4.33108 2 0 ack 40 ------- 0 3.0 0.0 1 193
+ 4.33604 2 0 ack 40 ------- 0 3.0 0.0 1 194
- 4.33604 2 0 ack 40 ------- 0 3.0 0.0 1 194
+ 4.33708 2 3 tcp 1000 ------- 0 0.0 3.0 96961 204
- 4.33708 2 3 tcp 1000 ------- 0 0.0 3.0 96961 204
r 4.34108 2 0 ack 40 ------- 0 3.0 0.0 1 194
+ 4.34604 2 0 ack 40 ------- 0 3.0 0.0 1 195
- 4.34604 2 0 ack 40 ------- 0 3.0 0.0 1 195
+ 4.34708 2 3 tcp 1000 ------- 0 0.0 3.0 97921 205
- 4.34708 2 3 tcp 1000 ------- 0 0.0 3.0 97921 205
+ 4.34808 2 3 tcp 1000 ------- 0 0.0 3.0 98881 206
r 4.35108 2 0 ack 40 ------- 0 3.0 0.0 1 195
+ 4.35604 2 0 ack 40 ------- 0 3.0 0.0 1 196
- 4.35604 2 0 ack 40 ------- 0 3.0 0.0 1 196
- 4.35708 2 3 tcp 1000 ------- 0 0.0 3.0 98881 206
+ 4.35708 2 3 tcp 1000 ------- 0 0.0 3.0 99841 207
r 4.36108 2 0 ack 40 ------- 0 3.0 0.0 1 196
+ 4.36604 2 0 ack 40 ------- 0 3.0 0.0 1 197
- 4.36604 2 0 ack 40 ------- 0 3.0 0.0 1 197
- 4.36708 2 3 tcp 1000 ------- 0 0.0 3.0 99841 207
+ 4.36708 2 3 tcp 1000 ------- 0 0.0 3.0 100801 208
r 4.37108 2 0 ack 40 ------- 0 3.0 0.0 1 197
+ 4.37604 2 0 ack 40 ------- 0 3.0 0.0 1 198
- 4.37604 2 0 ack 40 ------- 0 3.0 0.0 1 198
- 4.37708 2 3 tcp 1000 ------- 0 0.0 3.0 100801 208
+ 4.37708 2 3 tcp 1000 ------- 0 0.0 3.0 101761 209
r 4.38108 2 0 ack 40 ------- 0 3.0 0.0 1 198
+ 4.38604 2 0 ack 40 ------- 0 3.0 0.0 1 199
- 4.38604 2 0 ack 40 ------- 0 3.0 0.0 1 199
- 4.38708 2 3 tcp 1000 ------- 0 0.0 3.0 101761 209
+ 4.38708 2 3 tcp 1000 ------- 0 0.0 3.0 102721 210
r 4.39108 2 0 ack 40 ------- 0 3.0 0.0 1 199
+ 4.39604 2 0 ack 40 ------- 0 3.0 0.0 1 200
- 4.39604 2 0 ack 40 ------- 0 3.0 0.0 1 200
- 4.39708 2 3 tcp 1000 ------- 0 0.0 3.0 102721 210
+ 4.39708 2 3 tcp 1000 ------- 0 0.0 3.0 103681 211
r 4.40108 2 0 ack 40 ------- 0 3.0 0.0 1 200
+ 4.40604 2 0 ack 40 ------- 0 3.0 0.0 1 201
- 4.40604 2 0 ack 40 ------- 0 3.0 0.0 1 201
- 4.40708 2 3 tcp 1000 ------- 0 0.0 3.0 103681 211
+ 4.40708 2 3 tcp 1000 ------- 0 0.0 3.0 104641 212
r 4.41108 2 0 ack 40 ------- 0 3.0 0.0 1 201
- 4.41708 2 3 tcp 1000 ------- 0 0.0 3.0 104641 212
+ 4.41708 2 3 tcp 1000 ------- 0 0.0 3.0 105601 213
- 4.42708 2 3 tcp 1000 ------- 0 0.0 3.0 105601 213
r 4.42708 2 3 tcp 1000 ------- 0 0.0 3.0 95041 202
r 4.43708 2 3 tcp 1000 ------- 0 0.0 3.0 96001 203
r 4.44708 2 3 tcp 1000 ------- 0 0.0 3.0 96961 204
r 4.45708 2 3 tcp 1000 ------- 0 0.0 3.0 97921 205