M 0.00000 0 (716.37, 1488.04, 0.00), (705.81, 1489.28), 9.51
M 0.00000 1 (635.00, 1450.55, 0.00), (629.55, 1461.49), 12.41
M 0.00000 2 (643.16, 1534.79, 0.00), (647.73, 1512.93), 13.01
M 0.00000 3 (572.66, 1470.44, 0.00), (574.39, 1482.60), 9.01
M 0.00000 4 (576.66, 1512.44, 0.00), (570.39, 1518.60), 9.01
M 0.00000 5 (653.66, 1493.44, 0.00), (633.39, 1490.60), 13.01
s 0.001000000 _3_ AGT  --- 0 cbr 500 [0 0 0 0] ------- [3:0 0:0 32 0] [0] 0 0
r 0.001000000 _3_ RTR  --- 0 cbr 500 [0 0 0 0] ------- [3:0 0:0 32 0] [0] 0 0
s 0.001000000 _4_ AGT  --- 1 cbr 500 [0 0 0 0] ------- [4:0 0:1 32 0] [0] 0 0
r 0.001000000 _4_ RTR  --- 1 cbr 500 [0 0 0 0] ------- [4:0 0:1 32 0] [0] 0 0
s 0.001000000 _5_ AGT  --- 2 cbr 500 [0 0 0 0] ------- [5:0 0:2 32 0] [0] 0 0
r 0.001000000 _5_ RTR  --- 2 cbr 500 [0 0 0 0] ------- [5:0 0:2 32 0] [0] 0 0
s 0.001000000 _3_ RTR  --- 0 AODV 48 [0 0 0 0] ------- [3:255 -1:255 30 0] [0x2 1 1 [0 0] [3 4]] (REQUEST)
s 0.001000000 _4_ RTR  --- 0 AODV 48 [0 0 0 0] ------- [4:255 -1:255 30 0] [0x2 1 1 [0 0] [4 4]] (REQUEST)
s 0.001000000 _5_ RTR  --- 0 AODV 48 [0 0 0 0] ------- [5:255 -1:255 30 0] [0x2 1 1 [0 0] [5 4]] (REQUEST)
s 0.001000000 _5_ RTR  --- 0 AODV 48 [0 0 0 0] ------- [5:255 -1:255 30 0] [0x2 1 1 [0 0] [5 4]] (REQUEST)
s 0.001115000 _4_ MAC  --- 0 AODV 106 [0 ffffffff 8 800] ------- [4:255 -1:255 30 0] [0x2 1 1 [0 0] [4 4]] (REQUEST)
s 0.001375000 _5_ MAC  --- 0 AODV 106 [0 ffffffff a 800] ------- [5:255 -1:255 30 0] [0x2 1 1 [0 0] [5 4]] (REQUEST)
s 0.001535000 _3_ MAC  --- 0 AODV 106 [0 ffffffff 7 800] ------- [3:255 -1:255 30 0] [0x2 1 1 [0 0] [3 4]] (REQUEST)
s 0.001635000 _5_ MAC  --- 0 AODV 106 [0 ffffffff 9 800] ------- [5:255 -1:255 30 0] [0x2 1 1 [0 0] [5 4]] (REQUEST)
r 0.001963234 _2_ MAC  --- 0 AODV 48 [0 ffffffff 8 800] ------- [4:255 -1:255 30 0] [0x2 1 1 [0 0] [4 4]] (REQUEST)
r 0.001988234 _2_ RTR  --- 0 AODV 48 [0 ffffffff 8 800] ------- [4:255 -1:255 30 0] [0x2 1 1 [0 0] [4 4]] (REQUEST)
r 0.002223210 _0_ MAC  --- 0 AODV 48 [0 ffffffff a 800] ------- [5:255 -1:255 30 0] [0x2 1 1 [0 0] [5 4]] (REQUEST)
r 0.002248210 _0_ RTR  --- 0 AODV 48 [0 ffffffff a 800] ------- [5:255 -1:255 30 0] [0x2 1 1 [0 0] [5 4]] (REQUEST)
s 0.002248210 _0_ RTR  --- 0 AODV 44 [0 0 0 0] ------- [0:255 5:255 30 5] [0x4 1 [0 4] 10.000000] (REPLY)
r 0.002383218 _1_ MAC  --- 0 AODV 48 [0 ffffffff 7 800] ------- [3:255 -1:255 30 0] [0x2 1 1 [0 0] [3 4]] (REQUEST)
r 0.002408218 _1_ RTR  --- 0 AODV 48 [0 ffffffff 7 800] ------- [3:255 -1:255 30 0] [0x2 1 1 [0 0] [3 4]] (REQUEST)
s 0.002543210 _0_ MAC  --- 0 ARP 86 [0 ffffffff 2 806] ------- [REQUEST 2/0 0/5]
r 0.003231420 _5_ MAC  --- 0 ARP 28 [0 ffffffff 2 806] ------- [REQUEST 2/0 0/5]
s 0.003446420 _5_ MAC  --- 0 RTS 44 [52e 2 a 0] 
r 0.003798630 _0_ MAC  --- 0 RTS 44 [52e 2 a 0] 
s 0.003808630 _0_ MAC  --- 0 CTS 38 [3f4 a 0 0] 
r 0.004112839 _5_ MAC  --- 0 CTS 38 [3f4 a 0 0] 
s 0.004122839 _5_ MAC  --- 0 ARP 86 [13a 2 a 806] ------- [REPLY 10/5 2/0]
r 0.004811049 _0_ MAC  --- 0 ARP 28 [13a 2 a 806] ------- [REPLY 10/5 2/0]
s 0.004821049 _0_ MAC  --- 0 ACK 38 [0 a 0 0] 
s 0.005117852 _2_ RTR  --- 0 AODV 48 [0 ffffffff 8 800] ------- [2:255 -1:255 29 0] [0x2 2 1 [0 0] [4 4]] (REQUEST)
r 0.005125259 _5_ MAC  --- 0 ACK 38 [0 a 0 0] 
s 0.005432852 _2_ MAC  --- 0 AODV 106 [0 ffffffff 6 800] ------- [2:255 -1:255 29 0] [0x2 2 1 [0 0] [4 4]] (REQUEST)
s 0.005499009 _1_ RTR  --- 0 AODV 48 [0 ffffffff 7 800] ------- [1:255 -1:255 29 0] [0x2 2 1 [0 0] [3 4]] (REQUEST)
s 0.005555049 _0_ MAC  --- 0 RTS 44 [5ae a 2 0] 
s 0.005734009 _1_ MAC  --- 0 AODV 106 [0 ffffffff 3 800] ------- [1:255 -1:255 29 0] [0x2 2 1 [0 0] [3 4]] (REQUEST)
r 0.005907259 _5_ MAC  --- 0 RTS 44 [5ae a 2 0] 
s 0.005917259 _5_ MAC  --- 0 CTS 38 [474 2 0 0] 
r 0.006221469 _0_ MAC  --- 0 CTS 38 [474 2 0 0] 
s 0.006231469 _0_ MAC  --- 0 AODV 102 [13a a 2 800] ------- [0:255 5:255 30 5] [0x4 1 [0 4] 10.000000] (REPLY)
r 0.006281085 _4_ MAC  --- 0 AODV 48 [0 ffffffff 6 800] ------- [2:255 -1:255 29 0] [0x2 2 1 [0 0] [4 4]] (REQUEST)
r 0.006306085 _4_ RTR  --- 0 AODV 48 [0 ffffffff 6 800] ------- [2:255 -1:255 29 0] [0x2 2 1 [0 0] [4 4]] (REQUEST)
r 0.006582227 _3_ MAC  --- 0 AODV 48 [0 ffffffff 3 800] ------- [1:255 -1:255 29 0] [0x2 2 1 [0 0] [3 4]] (REQUEST)
r 0.006607227 _3_ RTR  --- 0 AODV 48 [0 ffffffff 3 800] ------- [1:255 -1:255 29 0] [0x2 2 1 [0 0] [3 4]] (REQUEST)
r 0.007047679 _5_ MAC  --- 0 AODV 44 [13a a 2 800] ------- [0:255 5:255 30 5] [0x4 1 [0 4] 10.000000] (REPLY)
s 0.007057679 _5_ MAC  --- 0 ACK 38 [0 2 0 0] 
r 0.007072679 _5_ RTR  --- 0 AODV 44 [13a a 2 800] ------- [0:255 5:255 30 5] [0x4 1 [0 4] 10.000000] (REPLY)
s 0.007072679 _5_ RTR  --- 2 cbr 520 [0 0 0 0] ------- [5:0 0:2 30 0] [0] 0 0
r 0.007361889 _0_ MAC  --- 0 ACK 38 [0 2 0 0] 
s 0.007731679 _5_ MAC  --- 0 RTS 44 [148e 2 a 0] 
r 0.008083889 _0_ MAC  --- 0 RTS 44 [148e 2 a 0] 
s 0.008093889 _0_ MAC  --- 0 CTS 38 [1354 a 0 0] 
r 0.008398099 _5_ MAC  --- 0 CTS 38 [1354 a 0 0] 
s 0.008408099 _5_ MAC  --- 2 cbr 578 [13a 2 a 800] ------- [5:0 0:2 30 0] [0] 0 0
s 0.009000000 _3_ AGT  --- 3 cbr 500 [0 0 0 0] ------- [3:0 0:0 32 0] [1] 0 0
r 0.009000000 _3_ RTR  --- 3 cbr 500 [0 0 0 0] ------- [3:0 0:0 32 0] [1] 0 0
s 0.009000000 _4_ AGT  --- 4 cbr 500 [0 0 0 0] ------- [4:0 0:1 32 0] [1] 0 0
r 0.009000000 _4_ RTR  --- 4 cbr 500 [0 0 0 0] ------- [4:0 0:1 32 0] [1] 0 0
s 0.009000000 _5_ AGT  --- 5 cbr 500 [0 0 0 0] ------- [5:0 0:2 32 0] [1] 0 0
r 0.009000000 _5_ RTR  --- 5 cbr 500 [0 0 0 0] ------- [5:0 0:2 32 0] [1] 0 0
s 0.009000000 _5_ RTR  --- 5 cbr 520 [0 0 0 0] ------- [5:0 0:2 30 0] [1] 0 0
s 0.009979788 _2_ RTR  --- 0 AODV 48 [0 ffffffff 8 800] ------- [2:255 -1:255 29 0] [0x2 2 1 [0 0] [4 4]] (REQUEST)
s 0.010274788 _2_ MAC  --- 0 AODV 106 [0 ffffffff 5 800] ------- [2:255 -1:255 29 0] [0x2 2 1 [0 0] [4 4]] (REQUEST)
s 0.010771453 _1_ RTR  --- 0 AODV 48 [0 ffffffff 7 800] ------- [1:255 -1:255 29 0] [0x2 2 1 [0 0] [3 4]] (REQUEST)
s 0.010866453 _1_ MAC  --- 0 AODV 106 [0 ffffffff 4 800] ------- [1:255 -1:255 29 0] [0x2 2 1 [0 0] [3 4]] (REQUEST)
r 0.011123077 _0_ MAC  --- 0 AODV 48 [0 ffffffff 5 800] ------- [2:255 -1:255 29 0] [0x2 2 1 [0 0] [4 4]] (REQUEST)
r 0.011148077 _0_ RTR  --- 0 AODV 48 [0 ffffffff 5 800] ------- [2:255 -1:255 29 0] [0x2 2 1 [0 0] [4 4]] (REQUEST)
s 0.011148077 _0_ RTR  --- 0 AODV 44 [0 0 0 0] ------- [0:255 4:255 30 2] [0x4 1 [0 6] 10.000000] (REPLY)
s 0.011643077 _0_ MAC  --- 0 ARP 86 [0 ffffffff 0 806] ------- [REQUEST 0/0 0/2]
r 0.011714752 _0_ MAC  --- 0 AODV 48 [0 ffffffff 4 800] ------- [1:255 -1:255 29 0] [0x2 2 1 [0 0] [3 4]] (REQUEST)
r 0.011739752 _0_ RTR  --- 0 AODV 48 [0 ffffffff 4 800] ------- [1:255 -1:255 29 0] [0x2 2 1 [0 0] [3 4]] (REQUEST)
s 0.011739752 _0_ RTR  --- 0 AODV 44 [0 0 0 0] ------- [0:255 3:255 30 1] [0x4 1 [0 8] 10.000000] (REPLY)
r 0.012331366 _2_ MAC  --- 0 ARP 28 [0 ffffffff 0 806] ------- [REQUEST 0/0 0/2]
s 0.012374752 _0_ MAC  --- 0 ARP 86 [0 ffffffff 1 806] ------- [REQUEST 1/0 0/1]
s 0.012926366 _2_ MAC  --- 0 RTS 44 [52e 0 5 0] 
r 0.013032309 _0_ MAC  --- 2 cbr 520 [13a 2 a 800] ------- [5:0 0:2 30 0] [0] 1 0
s 0.013042309 _0_ MAC  --- 0 ACK 38 [0 a 0 0] 
r 0.013057309 _0_ AGT  --- 2 cbr 520 [13a 2 a 800] ------- [5:0 0:2 30 0] [0] 1 0
r 0.013063050 _1_ MAC  --- 0 ARP 28 [0 ffffffff 1 806] ------- [REQUEST 1/0 0/1]
s 0.013158050 _1_ MAC  --- 0 RTS 44 [52e 1 4 0] 
r 0.013278655 _0_ MAC  --- 0 RTS 44 [52e 0 5 0] 
s 0.013288655 _0_ MAC  --- 0 CTS 38 [3f4 5 0 0] 
r 0.013346519 _5_ MAC  --- 0 ACK 38 [0 a 0 0] 
r 0.013510348 _0_ MAC  --- 0 RTS 44 [52e 1 4 0] 
s 0.013520348 _0_ MAC  --- 0 CTS 38 [3f4 4 0 0] 
r 0.013592944 _2_ MAC  --- 0 CTS 38 [3f4 5 0 0] 
s 0.013602944 _2_ MAC  --- 0 ARP 86 [13a 0 5 806] ------- [REPLY 5/2 0/0]
s 0.013696519 _5_ MAC  --- 0 RTS 44 [148e 2 a 0] 
r 0.013824647 _1_ MAC  --- 0 CTS 38 [3f4 4 0 0] 
s 0.013834647 _1_ MAC  --- 0 ARP 86 [13a 1 4 806] ------- [REPLY 4/1 1/0]
r 0.014048728 _0_ MAC  --- 0 RTS 44 [148e 2 a 0] 
s 0.014058728 _0_ MAC  --- 0 CTS 38 [1354 a 0 0] 
r 0.014291232 _0_ MAC  --- 0 ARP 28 [13a 0 5 806] ------- [REPLY 5/2 0/0]
s 0.014301232 _0_ MAC  --- 0 ACK 38 [0 5 0 0] 
r 0.014362938 _5_ MAC  --- 0 CTS 38 [1354 a 0 0] 
s 0.014372938 _5_ MAC  --- 5 cbr 578 [13a 2 a 800] ------- [5:0 0:2 30 0] [1] 0 0
r 0.014522945 _0_ MAC  --- 0 ARP 28 [13a 1 4 806] ------- [REPLY 4/1 1/0]
s 0.014532945 _0_ MAC  --- 0 ACK 38 [0 4 0 0] 
r 0.014605521 _2_ MAC  --- 0 ACK 38 [0 5 0 0] 
r 0.014837243 _1_ MAC  --- 0 ACK 38 [0 4 0 0] 
s 0.015015232 _0_ MAC  --- 0 RTS 44 [5ae 5 0 0] 
s 0.015206945 _0_ MAC  --- 0 RTS 44 [5ae 4 1 0] 
r 0.015367521 _2_ MAC  --- 0 RTS 44 [5ae 5 0 0] 
s 0.015377521 _2_ MAC  --- 0 CTS 38 [474 0 0 0] 
r 0.015559243 _1_ MAC  --- 0 RTS 44 [5ae 4 1 0] 
s 0.015569243 _1_ MAC  --- 0 CTS 38 [474 1 0 0] 
r 0.015681810 _0_ MAC  --- 0 CTS 38 [474 0 0 0] 
s 0.015691810 _0_ MAC  --- 0 AODV 102 [13a 5 0 800] ------- [0:255 4:255 30 2] [0x4 1 [0 6] 10.000000] (REPLY)
r 0.015873541 _0_ MAC  --- 0 CTS 38 [474 1 0 0] 
s 0.015883541 _0_ MAC  --- 0 AODV 102 [13a 4 1 800] ------- [0:255 3:255 30 1] [0x4 1 [0 8] 10.000000] (REPLY)
r 0.016508098 _2_ MAC  --- 0 AODV 44 [13a 5 0 800] ------- [0:255 4:255 30 2] [0x4 1 [0 6] 10.000000] (REPLY)
s 0.016518098 _2_ MAC  --- 0 ACK 38 [0 0 0 0] 
r 0.016533098 _2_ RTR  --- 0 AODV 44 [13a 5 0 800] ------- [0:255 4:255 30 2] [0x4 1 [0 6] 10.000000] (REPLY)
f 0.016533098 _2_ RTR  --- 0 AODV 44 [13a 5 0 800] ------- [0:255 4:255 29 4] [0x4 2 [0 6] 10.000000] (REPLY)
r 0.016699840 _1_ MAC  --- 0 AODV 44 [13a 4 1 800] ------- [0:255 3:255 30 1] [0x4 1 [0 8] 10.000000] (REPLY)
s 0.016709840 _1_ MAC  --- 0 ACK 38 [0 1 0 0] 
r 0.016724840 _1_ RTR  --- 0 AODV 44 [13a 4 1 800] ------- [0:255 3:255 30 1] [0x4 1 [0 8] 10.000000] (REPLY)
f 0.016724840 _1_ RTR  --- 0 AODV 44 [13a 4 1 800] ------- [0:255 3:255 29 3] [0x4 2 [0 8] 10.000000] (REPLY)
r 0.016822387 _0_ MAC  --- 0 ACK 38 [0 0 0 0] 
s 0.016868098 _2_ MAC  --- 0 ARP 86 [0 ffffffff 6 806] ------- [REQUEST 6/2 0/4]
s 0.016979840 _1_ MAC  --- 0 ARP 86 [0 ffffffff 3 806] ------- [REQUEST 3/1 0/3]
s 0.017000000 _3_ AGT  --- 6 cbr 500 [0 0 0 0] ------- [3:0 0:0 32 0] [2] 0 0
r 0.017000000 _3_ RTR  --- 6 cbr 500 [0 0 0 0] ------- [3:0 0:0 32 0] [2] 0 0
s 0.017000000 _4_ AGT  --- 7 cbr 500 [0 0 0 0] ------- [4:0 0:1 32 0] [2] 0 0
r 0.017000000 _4_ RTR  --- 7 cbr 500 [0 0 0 0] ------- [4:0 0:1 32 0] [2] 0 0
s 0.017000000 _5_ AGT  --- 8 cbr 500 [0 0 0 0] ------- [5:0 0:2 32 0] [2] 0 0
r 0.017000000 _5_ RTR  --- 8 cbr 500 [0 0 0 0] ------- [5:0 0:2 32 0] [2] 0 0
s 0.017000000 _5_ RTR  --- 8 cbr 520 [0 0 0 0] ------- [5:0 0:2 30 0] [2] 0 0
r 0.017014138 _0_ MAC  --- 0 ACK 38 [0 1 0 0] 
r 0.017556332 _4_ MAC  --- 0 ARP 28 [0 ffffffff 6 806] ------- [REQUEST 6/2 0/4]
r 0.017668057 _3_ MAC  --- 0 ARP 28 [0 ffffffff 3 806] ------- [REQUEST 3/1 0/3]
s 0.017783057 _3_ MAC  --- 0 RTS 44 [52e 3 7 0] 
s 0.017811332 _4_ MAC  --- 0 RTS 44 [52e 6 8 0] 
r 0.018135275 _1_ MAC  --- 0 RTS 44 [52e 3 7 0] 
s 0.018145275 _1_ MAC  --- 0 CTS 38 [3f4 7 0 0] 
r 0.018163566 _2_ MAC  --- 0 RTS 44 [52e 6 8 0] 
s 0.018173566 _2_ MAC  --- 0 CTS 38 [3f4 8 0 0] 
r 0.018449493 _3_ MAC  --- 0 CTS 38 [3f4 7 0 0] 
s 0.018459493 _3_ MAC  --- 0 ARP 86 [13a 3 7 806] ------- [REPLY 7/3 3/1]
r 0.018477800 _4_ MAC  --- 0 CTS 38 [3f4 8 0 0] 
s 0.018487800 _4_ MAC  --- 0 ARP 86 [13a 6 8 806] ------- [REPLY 8/4 6/2]
r 0.018997148 _0_ MAC  --- 5 cbr 520 [13a 2 a 800] ------- [5:0 0:2 30 0] [1] 1 0
s 0.019007148 _0_ MAC  --- 0 ACK 38 [0 a 0 0] 
r 0.019022148 _0_ AGT  --- 5 cbr 520 [13a 2 a 800] ------- [5:0 0:2 30 0] [1] 1 0
r 0.019147711 _1_ MAC  --- 0 ARP 28 [13a 3 7 806] ------- [REPLY 7/3 3/1]
s 0.019157711 _1_ MAC  --- 0 ACK 38 [0 7 0 0] 
r 0.019176034 _2_ MAC  --- 0 ARP 28 [13a 6 8 806] ------- [REPLY 8/4 6/2]
s 0.019186034 _2_ MAC  --- 0 ACK 38 [0 8 0 0] 
r 0.019311358 _5_ MAC  --- 0 ACK 38 [0 a 0 0] 
r 0.019461928 _3_ MAC  --- 0 ACK 38 [0 7 0 0] 
s 0.019481358 _5_ MAC  --- 0 RTS 44 [148e 2 a 0] 
r 0.019490268 _4_ MAC  --- 0 ACK 38 [0 8 0 0] 
s 0.019560034 _2_ MAC  --- 0 RTS 44 [5ae 8 6 0] 
r 0.019833568 _0_ MAC  --- 0 RTS 44 [148e 2 a 0] 
s 0.019843568 _0_ MAC  --- 0 CTS 38 [1354 a 0 0] 
r 0.019912268 _4_ MAC  --- 0 RTS 44 [5ae 8 6 0] 
s 0.019922268 _4_ MAC  --- 0 CTS 38 [474 6 0 0] 
s 0.020031711 _1_ MAC  --- 0 RTS 44 [5ae 7 3 0] 
r 0.020147778 _5_ MAC  --- 0 CTS 38 [1354 a 0 0] 
s 0.020157778 _5_ MAC  --- 8 cbr 578 [13a 2 a 800] ------- [5:0 0:2 30 0] [2] 0 0
r 0.020226502 _2_ MAC  --- 0 CTS 38 [474 6 0 0] 
s 0.020236502 _2_ MAC  --- 0 AODV 102 [13a 8 6 800] ------- [0:255 4:255 29 4] [0x4 2 [0 6] 10.000000] (REPLY)
r 0.020383928 _3_ MAC  --- 0 RTS 44 [5ae 7 3 0] 
s 0.020393928 _3_ MAC  --- 0 CTS 38 [474 3 0 0] 
r 0.020698146 _1_ MAC  --- 0 CTS 38 [474 3 0 0] 
s 0.020708146 _1_ MAC  --- 0 AODV 102 [13a 7 3 800] ------- [0:255 3:255 29 3] [0x4 2 [0 8] 10.000000] (REPLY)
r 0.021052736 _4_ MAC  --- 0 AODV 44 [13a 8 6 800] ------- [0:255 4:255 29 4] [0x4 2 [0 6] 10.000000] (REPLY)
s 0.021062736 _4_ MAC  --- 0 ACK 38 [0 6 0 0] 
r 0.021077736 _4_ RTR  --- 0 AODV 44 [13a 8 6 800] ------- [0:255 4:255 29 4] [0x4 2 [0 6] 10.000000] (REPLY)
s 0.021077736 _4_ RTR  --- 1 cbr 520 [0 0 0 0] ------- [4:0 0:1 30 2] [0] 0 0
r 0.021366970 _2_ MAC  --- 0 ACK 38 [0 6 0 0] 
r 0.021524363 _3_ MAC  --- 0 AODV 44 [13a 7 3 800] ------- [0:255 3:255 29 3] [0x4 2 [0 8] 10.000000] (REPLY)
s 0.021534363 _3_ MAC  --- 0 ACK 38 [0 3 0 0] 
r 0.021549363 _3_ RTR  --- 0 AODV 44 [13a 7 3 800] ------- [0:255 3:255 29 3] [0x4 2 [0 8] 10.000000] (REPLY)
s 0.021549363 _3_ RTR  --- 0 cbr 520 [0 0 0 0] ------- [3:0 0:0 30 1] [0] 0 0
r 0.021838581 _1_ MAC  --- 0 ACK 38 [0 3 0 0] 
s 0.021896736 _4_ MAC  --- 0 RTS 44 [148e 6 8 0] 
s 0.022068363 _3_ MAC  --- 0 RTS 44 [148e 3 7 0] 
r 0.022248971 _2_ MAC  --- 0 RTS 44 [148e 6 8 0] 
s 0.022258971 _2_ MAC  --- 0 CTS 38 [1354 8 0 0] 
r 0.022420581 _1_ MAC  --- 0 RTS 44 [148e 3 7 0] 
s 0.022430581 _1_ MAC  --- 0 CTS 38 [1354 7 0 0] 
r 0.022563205 _4_ MAC  --- 0 CTS 38 [1354 8 0 0] 
s 0.022573205 _4_ MAC  --- 1 cbr 578 [13a 6 8 800] ------- [4:0 0:1 30 2] [0] 0 0
r 0.022734799 _3_ MAC  --- 0 CTS 38 [1354 7 0 0] 
s 0.022744799 _3_ MAC  --- 0 cbr 578 [13a 3 7 800] ------- [3:0 0:0 30 1] [0] 0 0
r 0.024781988 _0_ MAC  --- 8 cbr 520 [13a 2 a 800] ------- [5:0 0:2 30 0] [2] 1 0
s 0.024791988 _0_ MAC  --- 0 ACK 38 [0 a 0 0] 
r 0.024806988 _0_ AGT  --- 8 cbr 520 [13a 2 a 800] ------- [5:0 0:2 30 0] [2] 1 0
s 0.025000000 _3_ AGT  --- 9 cbr 500 [0 0 0 0] ------- [3:0 0:0 32 0] [3] 0 0
r 0.025000000 _3_ RTR  --- 9 cbr 500 [0 0 0 0] ------- [3:0 0:0 32 0] [3] 0 0
s 0.025000000 _4_ AGT  --- 10 cbr 500 [0 0 0 0] ------- [4:0 0:1 32 0] [3] 0 0
r 0.025000000 _4_ RTR  --- 10 cbr 500 [0 0 0 0] ------- [4:0 0:1 32 0] [3] 0 0
s 0.025000000 _5_ AGT  --- 11 cbr 500 [0 0 0 0] ------- [5:0 0:2 32 0] [3] 0 0
r 0.025000000 _5_ RTR  --- 11 cbr 500 [0 0 0 0] ------- [5:0 0:2 32 0] [3] 0 0
s 0.025000000 _3_ RTR  --- 9 cbr 520 [0 0 0 0] ------- [3:0 0:0 30 1] [3] 0 0
s 0.025000000 _4_ RTR  --- 10 cbr 520 [0 0 0 0] ------- [4:0 0:1 30 2] [3] 0 0
s 0.025000000 _5_ RTR  --- 11 cbr 520 [0 0 0 0] ------- [5:0 0:2 30 0] [3] 0 0
r 0.025096199 _5_ MAC  --- 0 ACK 38 [0 a 0 0] 
s 0.025626199 _5_ MAC  --- 0 RTS 44 [148e 2 a 0] 
r 0.025978409 _0_ MAC  --- 0 RTS 44 [148e 2 a 0] 
s 0.025988409 _0_ MAC  --- 0 CTS 38 [1354 a 0 0] 
r 0.026292619 _5_ MAC  --- 0 CTS 38 [1354 a 0 0] 
s 0.026302619 _5_ MAC  --- 11 cbr 578 [13a 2 a 800] ------- [5:0 0:2 30 0] [3] 0 0
r 0.027197439 _2_ MAC  --- 1 cbr 520 [13a 6 8 800] ------- [4:0 0:1 30 2] [0] 1 0
s 0.027207439 _2_ MAC  --- 0 ACK 38 [0 8 0 0] 
r 0.027222439 _2_ RTR  --- 1 cbr 520 [13a 6 8 800] ------- [4:0 0:1 30 2] [0] 1 0
f 0.027222439 _2_ RTR  --- 1 cbr 520 [13a 6 8 800] ------- [4:0 0:1 29 0] [0] 1 0
s 0.027297439 _2_ MAC  --- 0 RTS 44 [148e 0 5 0] 
r 0.027369016 _1_ MAC  --- 0 cbr 520 [13a 3 7 800] ------- [3:0 0:0 30 1] [0] 1 0
s 0.027379016 _1_ MAC  --- 0 ACK 38 [0 7 0 0] 
r 0.027394016 _1_ RTR  --- 0 cbr 520 [13a 3 7 800] ------- [3:0 0:0 30 1] [0] 1 0
f 0.027394016 _1_ RTR  --- 0 cbr 520 [13a 3 7 800] ------- [3:0 0:0 29 0] [0] 1 0
r 0.027511673 _4_ MAC  --- 0 ACK 38 [0 8 0 0] 
r 0.027649727 _0_ MAC  --- 0 RTS 44 [148e 0 5 0] 
s 0.027659727 _0_ MAC  --- 0 CTS 38 [1354 5 0 0] 
r 0.027683234 _3_ MAC  --- 0 ACK 38 [0 7 0 0] 
s 0.027689016 _1_ MAC  --- 0 RTS 44 [148e 1 4 0] 
s 0.027881673 _4_ MAC  --- 0 RTS 44 [148e 6 8 0] 
s 0.027893234 _3_ MAC  --- 0 RTS 44 [148e 3 7 0] 
r 0.027964014 _2_ MAC  --- 0 CTS 38 [1354 5 0 0] 
s 0.027974014 _2_ MAC  --- 1 cbr 578 [13a 0 5 800] ------- [4:0 0:1 29 0] [0] 1 0
r 0.028041314 _0_ MAC  --- 0 RTS 44 [148e 1 4 0] 
s 0.028051314 _0_ MAC  --- 0 CTS 38 [1354 4 0 0] 
r 0.028233907 _2_ MAC  --- 0 RTS 44 [148e 6 8 0] 
s 0.028243907 _2_ MAC  --- 0 CTS 38 [1354 8 0 0] 
r 0.028245451 _1_ MAC  --- 0 RTS 44 [148e 3 7 0] 
s 0.028255451 _1_ MAC  --- 0 CTS 38 [1354 7 0 0] 
r 0.028355612 _1_ MAC  --- 0 CTS 38 [1354 4 0 0] 
s 0.028365612 _1_ MAC  --- 0 cbr 578 [13a 1 4 800] ------- [3:0 0:0 29 0] [0] 1 0
r 0.028548141 _4_ MAC  --- 0 CTS 38 [1354 8 0 0] 
s 0.028558141 _4_ MAC  --- 10 cbr 578 [13a 6 8 800] ------- [4:0 0:1 30 2] [3] 0 0
r 0.028559669 _3_ MAC  --- 0 CTS 38 [1354 7 0 0] 
s 0.028569669 _3_ MAC  --- 9 cbr 578 [13a 3 7 800] ------- [3:0 0:0 30 1] [3] 0 0
r 0.030926829 _0_ MAC  --- 11 cbr 520 [13a 2 a 800] ------- [5:0 0:2 30 0] [3] 1 0
s 0.030936829 _0_ MAC  --- 0 ACK 38 [0 a 0 0] 
r 0.030951829 _0_ AGT  --- 11 cbr 520 [13a 2 a 800] ------- [5:0 0:2 30 0] [3] 1 0
s 0.031077736 _4_ RTR  --- 4 cbr 520 [0 0 0 0] ------- [4:0 0:1 30 2] [1] 0 0
r 0.031241039 _5_ MAC  --- 0 ACK 38 [0 a 0 0] 
s 0.031549363 _3_ RTR  --- 3 cbr 520 [0 0 0 0] ------- [3:0 0:0 30 1] [1] 0 0
r 0.032598302 _0_ MAC  --- 1 cbr 520 [13a 0 5 800] ------- [4:0 0:1 29 0] [0] 2 0
s 0.032608302 _0_ MAC  --- 0 ACK 38 [0 5 0 0] 
r 0.032623302 _0_ AGT  --- 1 cbr 520 [13a 0 5 800] ------- [4:0 0:1 29 0] [0] 2 0
r 0.032912590 _2_ MAC  --- 0 ACK 38 [0 5 0 0] 
r 0.032989910 _0_ MAC  --- 0 cbr 520 [13a 1 4 800] ------- [3:0 0:0 29 0] [0] 2 0
s 0.032999910 _0_ MAC  --- 0 ACK 38 [0 4 0 0] 
s 0.033000000 _3_ AGT  --- 12 cbr 500 [0 0 0 0] ------- [3:0 0:0 32 0] [4] 0 0
r 0.033000000 _3_ RTR  --- 12 cbr 500 [0 0 0 0] ------- [3:0 0:0 32 0] [4] 0 0
s 0.033000000 _4_ AGT  --- 13 cbr 500 [0 0 0 0] ------- [4:0 0:1 32 0] [4] 0 0
r 0.033000000 _4_ RTR  --- 13 cbr 500 [0 0 0 0] ------- [4:0 0:1 32 0] [4] 0 0
s 0.033000000 _5_ AGT  --- 14 cbr 500 [0 0 0 0] ------- [5:0 0:2 32 0] [4] 0 0
r 0.033000000 _5_ RTR  --- 14 cbr 500 [0 0 0 0] ------- [5:0 0:2 32 0] [4] 0 0
s 0.033000000 _3_ RTR  --- 12 cbr 520 [0 0 0 0] ------- [3:0 0:0 30 1] [4] 0 0
s 0.033000000 _4_ RTR  --- 13 cbr 520 [0 0 0 0] ------- [4:0 0:1 30 2] [4] 0 0
s 0.033000000 _5_ RTR  --- 14 cbr 520 [0 0 0 0] ------- [5:0 0:2 30 0] [4] 0 0
r 0.033014910 _0_ AGT  --- 0 cbr 520 [13a 1 4 800] ------- [3:0 0:0 29 0] [0] 2 0
r 0.033182375 _2_ MAC  --- 10 cbr 520 [13a 6 8 800] ------- [4:0 0:1 30 2] [3] 1 0
s 0.033192375 _2_ MAC  --- 0 ACK 38 [0 8 0 0] 
r 0.033193886 _1_ MAC  --- 9 cbr 520 [13a 3 7 800] ------- [3:0 0:0 30 1] [3] 1 0
s 0.033203886 _1_ MAC  --- 0 ACK 38 [0 7 0 0] 
r 0.033207375 _2_ RTR  --- 10 cbr 520 [13a 6 8 800] ------- [4:0 0:1 30 2] [3] 1 0
f 0.033207375 _2_ RTR  --- 10 cbr 520 [13a 6 8 800] ------- [4:0 0:1 29 0] [3] 1 0
r 0.033218886 _1_ RTR  --- 9 cbr 520 [13a 3 7 800] ------- [3:0 0:0 30 1] [3] 1 0
f 0.033218886 _1_ RTR  --- 9 cbr 520 [13a 3 7 800] ------- [3:0 0:0 29 0] [3] 1 0
s 0.033282375 _2_ MAC  --- 0 RTS 44 [148e 0 5 0] 
r 0.033304208 _1_ MAC  --- 0 ACK 38 [0 4 0 0] 
s 0.033375000 _5_ MAC  --- 0 RTS 44 [148e 2 a 0] 
r 0.033496609 _4_ MAC  --- 0 ACK 38 [0 8 0 0] 
r 0.033508104 _3_ MAC  --- 0 ACK 38 [0 7 0 0] 
s 0.033594208 _1_ MAC  --- 0 RTS 44 [148e 1 4 0] 
r 0.033634663 _0_ MAC  --- 0 RTS 44 [148e 0 5 0] 
s 0.033644663 _0_ MAC  --- 0 CTS 38 [1354 5 0 0] 
r 0.033727210 _0_ MAC  --- 0 RTS 44 [148e 2 a 0] 
s 0.033737210 _0_ MAC  --- 0 CTS 38 [1354 a 0 0] 
s 0.033838104 _3_ MAC  --- 0 RTS 44 [148e 3 7 0] 
s 0.033846609 _4_ MAC  --- 0 RTS 44 [148e 6 8 0] 
r 0.033946506 _0_ MAC  --- 0 RTS 44 [148e 1 4 0] 
r 0.033948950 _2_ MAC  --- 0 CTS 38 [1354 5 0 0] 
s 0.033956506 _0_ MAC  --- 0 CTS 38 [1354 4 0 0] 
s 0.033958950 _2_ MAC  --- 10 cbr 578 [13a 0 5 800] ------- [4:0 0:1 29 0] [3] 1 0
r 0.034041420 _5_ MAC  --- 0 CTS 38 [1354 a 0 0] 
s 0.034051420 _5_ MAC  --- 14 cbr 578 [13a 2 a 800] ------- [5:0 0:2 30 0] [4] 0 0
r 0.034190321 _1_ MAC  --- 0 RTS 44 [148e 3 7 0] 
r 0.034198843 _2_ MAC  --- 0 RTS 44 [148e 6 8 0] 
s 0.034200321 _1_ MAC  --- 0 CTS 38 [1354 7 0 0] 
s 0.034208843 _2_ MAC  --- 0 CTS 38 [1354 8 0 0] 
r 0.034260803 _1_ MAC  --- 0 CTS 38 [1354 4 0 0] 
s 0.034270803 _1_ MAC  --- 9 cbr 578 [13a 1 4 800] ------- [3:0 0:0 29 0] [3] 1 0
r 0.034504538 _3_ MAC  --- 0 CTS 38 [1354 7 0 0] 
r 0.034513077 _4_ MAC  --- 0 CTS 38 [1354 8 0 0] 
s 0.034514538 _3_ MAC  --- 3 cbr 578 [13a 3 7 800] ------- [3:0 0:0 30 1] [1] 0 0
s 0.034523077 _4_ MAC  --- 4 cbr 578 [13a 6 8 800] ------- [4:0 0:1 30 2] [1] 0 0
r 0.038583238 _0_ MAC  --- 10 cbr 520 [13a 0 5 800] ------- [4:0 0:1 29 0] [3] 2 0
s 0.038593238 _0_ MAC  --- 0 ACK 38 [0 5 0 0] 
r 0.038608238 _0_ AGT  --- 10 cbr 520 [13a 0 5 800] ------- [4:0 0:1 29 0] [3] 2 0
r 0.038675631 _0_ MAC  --- 14 cbr 520 [13a 2 a 800] ------- [5:0 0:2 30 0] [4] 1 0
s 0.038685631 _0_ MAC  --- 0 ACK 38 [0 a 0 0] 
r 0.038700631 _0_ AGT  --- 14 cbr 520 [13a 2 a 800] ------- [5:0 0:2 30 0] [4] 1 0
r 0.038895101 _0_ MAC  --- 9 cbr 520 [13a 1 4 800] ------- [3:0 0:0 29 0] [3] 2 0
r 0.038897525 _2_ MAC  --- 0 ACK 38 [0 5 0 0] 
s 0.038905101 _0_ MAC  --- 0 ACK 38 [0 4 0 0] 
r 0.038920101 _0_ AGT  --- 9 cbr 520 [13a 1 4 800] ------- [3:0 0:0 29 0] [3] 2 0
r 0.038989841 _5_ MAC  --- 0 ACK 38 [0 a 0 0] 
r 0.039138756 _1_ MAC  --- 3 cbr 520 [13a 3 7 800] ------- [3:0 0:0 30 1] [1] 1 0
r 0.039147312 _2_ MAC  --- 4 cbr 520 [13a 6 8 800] ------- [4:0 0:1 30 2] [1] 1 0
s 0.039148756 _1_ MAC  --- 0 ACK 38 [0 7 0 0] 
s 0.039157312 _2_ MAC  --- 0 ACK 38 [0 8 0 0] 
r 0.039163756 _1_ RTR  --- 3 cbr 520 [13a 3 7 800] ------- [3:0 0:0 30 1] [1] 1 0
f 0.039163756 _1_ RTR  --- 3 cbr 520 [13a 3 7 800] ------- [3:0 0:0 29 0] [1] 1 0
r 0.039172312 _2_ RTR  --- 4 cbr 520 [13a 6 8 800] ------- [4:0 0:1 30 2] [1] 1 0
f 0.039172312 _2_ RTR  --- 4 cbr 520 [13a 6 8 800] ------- [4:0 0:1 29 0] [1] 1 0
r 0.039209399 _1_ MAC  --- 0 ACK 38 [0 4 0 0] 
s 0.039379399 _1_ MAC  --- 0 RTS 44 [148e 1 4 0] 
r 0.039452973 _3_ MAC  --- 0 ACK 38 [0 7 0 0] 
r 0.039461546 _4_ MAC  --- 0 ACK 38 [0 8 0 0] 
s 0.039487312 _2_ MAC  --- 0 RTS 44 [148e 0 5 0] 
s 0.039551546 _4_ MAC  --- 0 RTS 44 [148e 6 8 0] 
r 0.039731696 _0_ MAC  --- 0 RTS 44 [148e 1 4 0] 
s 0.039741696 _0_ MAC  --- 0 CTS 38 [1354 4 0 0] 
s 0.039802973 _3_ MAC  --- 0 RTS 44 [148e 3 7 0] 
r 0.039839599 _0_ MAC  --- 0 RTS 44 [148e 0 5 0] 
s 0.039849599 _0_ MAC  --- 0 CTS 38 [1354 5 0 0] 
r 0.039903780 _2_ MAC  --- 0 RTS 44 [148e 6 8 0] 
s 0.039913780 _2_ MAC  --- 0 CTS 38 [1354 8 0 0] 
r 0.040045994 _1_ MAC  --- 0 CTS 38 [1354 4 0 0] 
s 0.040055994 _1_ MAC  --- 3 cbr 578 [13a 1 4 800] ------- [3:0 0:0 29 0] [1] 1 0
r 0.040153886 _2_ MAC  --- 0 CTS 38 [1354 5 0 0] 
r 0.040155190 _1_ MAC  --- 0 RTS 44 [148e 3 7 0] 
s 0.040163886 _2_ MAC  --- 4 cbr 578 [13a 0 5 800] ------- [4:0 0:1 29 0] [1] 1 0
s 0.040165190 _1_ MAC  --- 0 CTS 38 [1354 7 0 0] 
r 0.040218014 _4_ MAC  --- 0 CTS 38 [1354 8 0 0] 
s 0.040228014 _4_ MAC  --- 13 cbr 578 [13a 6 8 800] ------- [4:0 0:1 30 2] [4] 0 0
r 0.040469407 _3_ MAC  --- 0 CTS 38 [1354 7 0 0] 
s 0.040479407 _3_ MAC  --- 12 cbr 578 [13a 3 7 800] ------- [3:0 0:0 30 1] [4] 0 0
s 0.041000000 _3_ AGT  --- 15 cbr 500 [0 0 0 0] ------- [3:0 0:0 32 0] [5] 0 0
r 0.041000000 _3_ RTR  --- 15 cbr 500 [0 0 0 0] ------- [3:0 0:0 32 0] [5] 0 0
s 0.041000000 _4_ AGT  --- 16 cbr 500 [0 0 0 0] ------- [4:0 0:1 32 0] [5] 0 0
r 0.041000000 _4_ RTR  --- 16 cbr 500 [0 0 0 0] ------- [4:0 0:1 32 0] [5] 0 0
s 0.041000000 _5_ AGT  --- 17 cbr 500 [0 0 0 0] ------- [5:0 0:2 32 0] [5] 0 0
r 0.041000000 _5_ RTR  --- 17 cbr 500 [0 0 0 0] ------- [5:0 0:2 32 0] [5] 0 0
s 0.041000000 _3_ RTR  --- 15 cbr 520 [0 0 0 0] ------- [3:0 0:0 30 1] [5] 0 0
s 0.041000000 _4_ RTR  --- 16 cbr 520 [0 0 0 0] ------- [4:0 0:1 30 2] [5] 0 0
s 0.041000000 _5_ RTR  --- 17 cbr 520 [0 0 0 0] ------- [5:0 0:2 30 0] [5] 0 0
s 0.041077736 _4_ RTR  --- 7 cbr 520 [0 0 0 0] ------- [4:0 0:1 30 2] [2] 0 0
s 0.041535000 _5_ MAC  --- 0 RTS 44 [148e 2 a 0] 
s 0.041549363 _3_ RTR  --- 6 cbr 520 [0 0 0 0] ------- [3:0 0:0 30 1] [2] 0 0
r 0.041887210 _0_ MAC  --- 0 RTS 44 [148e 2 a 0] 
s 0.041897210 _0_ MAC  --- 0 CTS 38 [1354 a 0 0] 
r 0.042201421 _5_ MAC  --- 0 CTS 38 [1354 a 0 0] 
s 0.042211421 _5_ MAC  --- 17 cbr 578 [13a 2 a 800] ------- [5:0 0:2 30 0] [5] 0 0
r 0.044680291 _0_ MAC  --- 3 cbr 520 [13a 1 4 800] ------- [3:0 0:0 29 0] [1] 2 0
s 0.044690291 _0_ MAC  --- 0 ACK 38 [0 4 0 0] 
r 0.044705291 _0_ AGT  --- 3 cbr 520 [13a 1 4 800] ------- [3:0 0:0 29 0] [1] 2 0
r 0.044788173 _0_ MAC  --- 4 cbr 520 [13a 0 5 800] ------- [4:0 0:1 29 0] [1] 2 0
s 0.044798173 _0_ MAC  --- 0 ACK 38 [0 5 0 0] 
r 0.044813173 _0_ AGT  --- 4 cbr 520 [13a 0 5 800] ------- [4:0 0:1 29 0] [1] 2 0
r 0.044852248 _2_ MAC  --- 13 cbr 520 [13a 6 8 800] ------- [4:0 0:1 30 2] [4] 1 0
s 0.044862248 _2_ MAC  --- 0 ACK 38 [0 8 0 0] 
r 0.044877248 _2_ RTR  --- 13 cbr 520 [13a 6 8 800] ------- [4:0 0:1 30 2] [4] 1 0
f 0.044877248 _2_ RTR  --- 13 cbr 520 [13a 6 8 800] ------- [4:0 0:1 29 0] [4] 1 0
r 0.044994589 _1_ MAC  --- 0 ACK 38 [0 4 0 0] 
r 0.045102460 _2_ MAC  --- 0 ACK 38 [0 5 0 0] 
r 0.045103624 _1_ MAC  --- 12 cbr 520 [13a 3 7 800] ------- [3:0 0:0 30 1] [4] 1 0
s 0.045113624 _1_ MAC  --- 0 ACK 38 [0 7 0 0] 
r 0.045128624 _1_ RTR  --- 12 cbr 520 [13a 3 7 800] ------- [3:0 0:0 30 1] [4] 1 0
f 0.045128624 _1_ RTR  --- 12 cbr 520 [13a 3 7 800] ------- [3:0 0:0 29 0] [4] 1 0
s 0.045164589 _1_ MAC  --- 0 RTS 44 [148e 1 4 0] 
r 0.045166483 _4_ MAC  --- 0 ACK 38 [0 8 0 0] 
s 0.045316483 _4_ MAC  --- 0 RTS 44 [148e 6 8 0] 
s 0.045352460 _2_ MAC  --- 0 RTS 44 [148e 0 5 0] 
r 0.045417841 _3_ MAC  --- 0 ACK 38 [0 7 0 0] 
r 0.045516886 _0_ MAC  --- 0 RTS 44 [148e 1 4 0] 
s 0.045526886 _0_ MAC  --- 0 CTS 38 [1354 4 0 0] 
s 0.045547841 _3_ MAC  --- 0 RTS 44 [148e 3 7 0] 
r 0.045668717 _2_ MAC  --- 0 RTS 44 [148e 6 8 0] 
s 0.045678717 _2_ MAC  --- 0 CTS 38 [1354 8 0 0] 
r 0.045704747 _0_ MAC  --- 0 RTS 44 [148e 0 5 0] 
s 0.045714747 _0_ MAC  --- 0 CTS 38 [1354 5 0 0] 
r 0.045831184 _1_ MAC  --- 0 CTS 38 [1354 4 0 0] 
s 0.045841184 _1_ MAC  --- 12 cbr 578 [13a 1 4 800] ------- [3:0 0:0 29 0] [4] 1 0
r 0.045900059 _1_ MAC  --- 0 RTS 44 [148e 3 7 0] 
s 0.045910059 _1_ MAC  --- 0 CTS 38 [1354 7 0 0] 
r 0.045982951 _4_ MAC  --- 0 CTS 38 [1354 8 0 0] 
s 0.045992951 _4_ MAC  --- 16 cbr 578 [13a 6 8 800] ------- [4:0 0:1 30 2] [5] 0 0
r 0.046019034 _2_ MAC  --- 0 CTS 38 [1354 5 0 0] 
s 0.046029034 _2_ MAC  --- 13 cbr 578 [13a 0 5 800] ------- [4:0 0:1 29 0] [4] 1 0
r 0.046214276 _3_ MAC  --- 0 CTS 38 [1354 7 0 0] 
s 0.046224276 _3_ MAC  --- 15 cbr 578 [13a 3 7 800] ------- [3:0 0:0 30 1] [5] 0 0
r 0.046835631 _0_ MAC  --- 17 cbr 520 [13a 2 a 800] ------- [5:0 0:2 30 0] [5] 1 0
s 0.046845631 _0_ MAC  --- 0 ACK 38 [0 a 0 0] 
r 0.046860631 _0_ AGT  --- 17 cbr 520 [13a 2 a 800] ------- [5:0 0:2 30 0] [5] 1 0
r 0.047149841 _5_ MAC  --- 0 ACK 38 [0 a 0 0] 
s 0.049000000 _3_ AGT  --- 18 cbr 500 [0 0 0 0] ------- [3:0 0:0 32 0] [6] 0 0
r 0.049000000 _3_ RTR  --- 18 cbr 500 [0 0 0 0] ------- [3:0 0:0 32 0] [6] 0 0
s 0.049000000 _4_ AGT  --- 19 cbr 500 [0 0 0 0] ------- [4:0 0:1 32 0] [6] 0 0
r 0.049000000 _4_ RTR  --- 19 cbr 500 [0 0 0 0] ------- [4:0 0:1 32 0] [6] 0 0
s 0.049000000 _5_ AGT  --- 20 cbr 500 [0 0 0 0] ------- [5:0 0:2 32 0] [6] 0 0
r 0.049000000 _5_ RTR  --- 20 cbr 500 [0 0 0 0] ------- [5:0 0:2 32 0] [6] 0 0
s 0.049000000 _3_ RTR  --- 18 cbr 520 [0 0 0 0] ------- [3:0 0:0 30 1] [6] 0 0
s 0.049000000 _4_ RTR  --- 19 cbr 520 [0 0 0 0] ------- [4:0 0:1 30 2] [6] 0 0
s 0.049000000 _5_ RTR  --- 20 cbr 520 [0 0 0 0] ------- [5:0 0:2 30 0] [6] 0 0
s 0.049275000 _5_ MAC  --- 0 RTS 44 [148e 2 a 0] 
r 0.049627210 _0_ MAC  --- 0 RTS 44 [148e 2 a 0] 
s 0.049637210 _0_ MAC  --- 0 CTS 38 [1354 a 0 0] 
r 0.049941421 _5_ MAC  --- 0 CTS 38 [1354 a 0 0] 
s 0.049951421 _5_ MAC  --- 20 cbr 578 [13a 2 a 800] ------- [5:0 0:2 30 0] [6] 0 0
r 0.050465481 _0_ MAC  --- 12 cbr 520 [13a 1 4 800] ------- [3:0 0:0 29 0] [4] 2 0
s 0.050475481 _0_ MAC  --- 0 ACK 38 [0 4 0 0] 
r 0.050490481 _0_ AGT  --- 12 cbr 520 [13a 1 4 800] ------- [3:0 0:0 29 0] [4] 2 0
r 0.050617185 _2_ MAC  --- 16 cbr 520 [13a 6 8 800] ------- [4:0 0:1 30 2] [5] 1 0
s 0.050627185 _2_ MAC  --- 0 ACK 38 [0 8 0 0] 
r 0.050642185 _2_ RTR  --- 16 cbr 520 [13a 6 8 800] ------- [4:0 0:1 30 2] [5] 1 0
f 0.050642185 _2_ RTR  --- 16 cbr 520 [13a 6 8 800] ------- [4:0 0:1 29 0] [5] 1 0
r 0.050653321 _0_ MAC  --- 13 cbr 520 [13a 0 5 800] ------- [4:0 0:1 29 0] [4] 2 0
s 0.050663321 _0_ MAC  --- 0 ACK 38 [0 5 0 0] 
r 0.050678321 _0_ AGT  --- 13 cbr 520 [13a 0 5 800] ------- [4:0 0:1 29 0] [4] 2 0
r 0.050779779 _1_ MAC  --- 0 ACK 38 [0 4 0 0] 
r 0.050848493 _1_ MAC  --- 15 cbr 520 [13a 3 7 800] ------- [3:0 0:0 30 1] [5] 1 0
s 0.050858493 _1_ MAC  --- 0 ACK 38 [0 7 0 0] 
r 0.050873493 _1_ RTR  --- 15 cbr 520 [13a 3 7 800] ------- [3:0 0:0 30 1] [5] 1 0
f 0.050873493 _1_ RTR  --- 15 cbr 520 [13a 3 7 800] ------- [3:0 0:0 29 0] [5] 1 0
r 0.050931420 _4_ MAC  --- 0 ACK 38 [0 8 0 0] 
r 0.050967607 _2_ MAC  --- 0 ACK 38 [0 5 0 0] 
s 0.051137607 _2_ MAC  --- 0 RTS 44 [148e 0 5 0] 
r 0.051162710 _3_ MAC  --- 0 ACK 38 [0 7 0 0] 
s 0.051272710 _3_ MAC  --- 0 RTS 44 [148e 3 7 0] 
s 0.051288493 _1_ MAC  --- 0 RTS 44 [148e 1 4 0] 
r 0.051489894 _0_ MAC  --- 0 RTS 44 [148e 0 5 0] 
s 0.051499894 _0_ MAC  --- 0 CTS 38 [1354 5 0 0] 
s 0.051581420 _4_ MAC  --- 0 RTS 44 [148e 6 8 0] 
r 0.051624926 _1_ MAC  --- 0 RTS 44 [148e 3 7 0] 
s 0.051634926 _1_ MAC  --- 0 CTS 38 [1354 7 0 0] 
r 0.051640790 _0_ MAC  --- 0 RTS 44 [148e 1 4 0] 