+ 0 9 0 tcp 40 ------- 0 9.0 7.0 0 0
- 0 9 0 tcp 40 ------- 0 9.0 7.0 0 0
r 0.00216 9 0 tcp 40 ------- 0 9.0 7.0 0 0
h 0.00216 0 8 tcp 40 ------- 0 9.0 7.0 0 0
+ 0.00316 0 8 tcp 40 ------- 0 9.0 7.0 0 0
- 0.00316 0 8 tcp 40 ------- 0 9.0 7.0 0 0
r 0.004215 8 7 tcp 40 ------- 0 9.0 7.0 0 0
h 0.004215 7 8 ack 40 ------- 0 7.0 9.0 0 1
+ 0.005215 7 8 ack 40 ------- 0 7.0 9.0 0 1
- 0.005215 7 8 ack 40 ------- 0 7.0 9.0 0 1
r 0.00627 8 0 ack 40 ------- 0 7.0 9.0 0 1
+ 0.00627 0 9 ack 40 ------- 0 7.0 9.0 0 1
- 0.00627 0 9 ack 40 ------- 0 7.0 9.0 0 1
r 0.00843 0 9 ack 40 ------- 0 7.0 9.0 0 1
+ 0.00843 9 0 tcp 1040 ------- 0 9.0 7.0 1 2
- 0.00843 9 0 tcp 1040 ------- 0 9.0 7.0 1 2
+ 0.00843 9 0 tcp 1040 ------- 0 9.0 7.0 2 3
- 0.01259 9 0 tcp 1040 ------- 0 9.0 7.0 2 3
r 0.01459 9 0 tcp 1040 ------- 0 9.0 7.0 1 2
h 0.01459 0 8 tcp 1040 ------- 0 9.0 7.0 1 2
+ 0.01559 0 8 tcp 1040 ------- 0 9.0 7.0 1 2
- 0.01559 0 8 tcp 1040 ------- 0 9.0 7.0 1 2
r 0.017438 8 7 tcp 1040 ------- 0 9.0 7.0 1 2
h 0.017438 7 8 ack 40 ------- 0 7.0 9.0 1 4
+ 0.018438 7 8 ack 40 ------- 0 7.0 9.0 1 4
- 0.018438 7 8 ack 40 ------- 0 7.0 9.0 1 4
r 0.01875 9 0 tcp 1040 ------- 0 9.0 7.0 2 3
h 0.01875 0 8 tcp 1040 ------- 0 9.0 7.0 2 3
r 0.019493 8 0 ack 40 ------- 0 7.0 9.0 1 4
+ 0.019493 0 9 ack 40 ------- 0 7.0 9.0 1 4
- 0.019493 0 9 ack 40 ------- 0 7.0 9.0 1 4
+ 0.01975 0 8 tcp 1040 ------- 0 9.0 7.0 2 3
- 0.01975 0 8 tcp 1040 ------- 0 9.0 7.0 2 3
r 0.021598 8 7 tcp 1040 ------- 0 9.0 7.0 2 3
h 0.021598 7 8 ack 40 ------- 0 7.0 9.0 2 5
r 0.021653 0 9 ack 40 ------- 0 7.0 9.0 1 4
+ 0.021653 9 0 tcp 1040 ------- 0 9.0 7.0 3 6
- 0.021653 9 0 tcp 1040 ------- 0 9.0 7.0 3 6
+ 0.021653 9 0 tcp 1040 ------- 0 9.0 7.0 4 7
+ 0.022598 7 8 ack 40 ------- 0 7.0 9.0 2 5
- 0.022598 7 8 ack 40 ------- 0 7.0 9.0 2 5
r 0.023653 8 0 ack 40 ------- 0 7.0 9.0 2 5
+ 0.023653 0 9 ack 40 ------- 0 7.0 9.0 2 5
- 0.023653 0 9 ack 40 ------- 0 7.0 9.0 2 5
- 0.025813 9 0 tcp 1040 ------- 0 9.0 7.0 4 7
r 0.025813 0 9 ack 40 ------- 0 7.0 9.0 2 5
+ 0.025813 9 0 tcp 1040 ------- 0 9.0 7.0 5 8
+ 0.025813 9 0 tcp 1040 ------- 0 9.0 7.0 6 9
r 0.027813 9 0 tcp 1040 ------- 0 9.0 7.0 3 6
h 0.027813 0 8 tcp 1040 ------- 0 9.0 7.0 3 6
+ 0.028813 0 8 tcp 1040 ------- 0 9.0 7.0 3 6
- 0.028813 0 8 tcp 1040 ------- 0 9.0 7.0 3 6
- 0.029973 9 0 tcp 1040 ------- 0 9.0 7.0 5 8
r 0.03066 8 7 tcp 1040 ------- 0 9.0 7.0 3 6
h 0.03066 7 8 ack 40 ------- 0 7.0 9.0 3 10
+ 0.03166 7 8 ack 40 ------- 0 7.0 9.0 3 10
- 0.03166 7 8 ack 40 ------- 0 7.0 9.0 3 10
r 0.031973 9 0 tcp 1040 ------- 0 9.0 7.0 4 7
h 0.031973 0 8 tcp 1040 ------- 0 9.0 7.0 4 7
r 0.032715 8 0 ack 40 ------- 0 7.0 9.0 3 10
+ 0.032715 0 9 ack 40 ------- 0 7.0 9.0 3 10
- 0.032715 0 9 ack 40 ------- 0 7.0 9.0 3 10
+ 0.032973 0 8 tcp 1040 ------- 0 9.0 7.0 4 7
- 0.032973 0 8 tcp 1040 ------- 0 9.0 7.0 4 7
- 0.034133 9 0 tcp 1040 ------- 0 9.0 7.0 6 9
r 0.03482 8 7 tcp 1040 ------- 0 9.0 7.0 4 7
h 0.03482 7 8 ack 40 ------- 0 7.0 9.0 4 11
r 0.034875 0 9 ack 40 ------- 0 7.0 9.0 3 10
+ 0.034875 9 0 tcp 1040 ------- 0 9.0 7.0 7 12
+ 0.034875 9 0 tcp 1040 ------- 0 9.0 7.0 8 13
+ 0.03582 7 8 ack 40 ------- 0 7.0 9.0 4 11
- 0.03582 7 8 ack 40 ------- 0 7.0 9.0 4 11
r 0.036133 9 0 tcp 1040 ------- 0 9.0 7.0 5 8
h 0.036133 0 8 tcp 1040 ------- 0 9.0 7.0 5 8
r 0.036875 8 0 ack 40 ------- 0 7.0 9.0 4 11
+ 0.036875 0 9 ack 40 ------- 0 7.0 9.0 4 11
- 0.036875 0 9 ack 40 ------- 0 7.0 9.0 4 11
+ 0.037133 0 8 tcp 1040 ------- 0 9.0 7.0 5 8
- 0.037133 0 8 tcp 1040 ------- 0 9.0 7.0 5 8
- 0.038293 9 0 tcp 1040 ------- 0 9.0 7.0 7 12
r 0.03898 8 7 tcp 1040 ------- 0 9.0 7.0 5 8
h 0.03898 7 8 ack 40 ------- 0 7.0 9.0 5 14
r 0.039035 0 9 ack 40 ------- 0 7.0 9.0 4 11
+ 0.039035 9 0 tcp 1040 ------- 0 9.0 7.0 9 15
+ 0.039035 9 0 tcp 1040 ------- 0 9.0 7.0 10 16
+ 0.03998 7 8 ack 40 ------- 0 7.0 9.0 5 14
- 0.03998 7 8 ack 40 ------- 0 7.0 9.0 5 14
r 0.040293 9 0 tcp 1040 ------- 0 9.0 7.0 6 9
h 0.040293 0 8 tcp 1040 ------- 0 9.0 7.0 6 9
r 0.041035 8 0 ack 40 ------- 0 7.0 9.0 5 14
+ 0.041035 0 9 ack 40 ------- 0 7.0 9.0 5 14
- 0.041035 0 9 ack 40 ------- 0 7.0 9.0 5 14
+ 0.041293 0 8 tcp 1040 ------- 0 9.0 7.0 6 9
- 0.041293 0 8 tcp 1040 ------- 0 9.0 7.0 6 9
- 0.042453 9 0 tcp 1040 ------- 0 9.0 7.0 8 13
r 0.04314 8 7 tcp 1040 ------- 0 9.0 7.0 6 9
h 0.04314 7 8 ack 40 ------- 0 7.0 9.0 6 17
r 0.043195 0 9 ack 40 ------- 0 7.0 9.0 5 14
+ 0.043195 9 0 tcp 1040 ------- 0 9.0 7.0 11 18
+ 0.043195 9 0 tcp 1040 ------- 0 9.0 7.0 12 19
+ 0.04414 7 8 ack 40 ------- 0 7.0 9.0 6 17
- 0.04414 7 8 ack 40 ------- 0 7.0 9.0 6 17
r 0.044453 9 0 tcp 1040 ------- 0 9.0 7.0 7 12
h 0.044453 0 8 tcp 1040 ------- 0 9.0 7.0 7 12
r 0.045195 8 0 ack 40 ------- 0 7.0 9.0 6 17
+ 0.045195 0 9 ack 40 ------- 0 7.0 9.0 6 17
- 0.045195 0 9 ack 40 ------- 0 7.0 9.0 6 17
+ 0.045453 0 8 tcp 1040 ------- 0 9.0 7.0 7 12
- 0.045453 0 8 tcp 1040 ------- 0 9.0 7.0 7 12
- 0.046613 9 0 tcp 1040 ------- 0 9.0 7.0 9 15
r 0.0473 8 7 tcp 1040 ------- 0 9.0 7.0 7 12
h 0.0473 7 8 ack 40 ------- 0 7.0 9.0 7 20
r 0.047355 0 9 ack 40 ------- 0 7.0 9.0 6 17
+ 0.047355 9 0 tcp 1040 ------- 0 9.0 7.0 13 21
+ 0.047355 9 0 tcp 1040 ------- 0 9.0 7.0 14 22
+ 0.0483 7 8 ack 40 ------- 0 7.0 9.0 7 20
- 0.0483 7 8 ack 40 ------- 0 7.0 9.0 7 20
r 0.048613 9 0 tcp 1040 ------- 0 9.0 7.0 8 13
h 0.048613 0 8 tcp 1040 ------- 0 9.0 7.0 8 13
r 0.049355 8 0 ack 40 ------- 0 7.0 9.0 7 20
+ 0.049355 0 9 ack 40 ------- 0 7.0 9.0 7 20
- 0.049355 0 9 ack 40 ------- 0 7.0 9.0 7 20
+ 0.049613 0 8 tcp 1040 ------- 0 9.0 7.0 8 13
- 0.049613 0 8 tcp 1040 ------- 0 9.0 7.0 8 13
- 0.050773 9 0 tcp 1040 ------- 0 9.0 7.0 10 16
r 0.05146 8 7 tcp 1040 ------- 0 9.0 7.0 8 13
h 0.05146 7 8 ack 40 ------- 0 7.0 9.0 8 23
r 0.051515 0 9 ack 40 ------- 0 7.0 9.0 7 20
+ 0.051515 9 0 tcp 1040 ------- 0 9.0 7.0 15 24
+ 0.051515 9 0 tcp 1040 ------- 0 9.0 7.0 16 25
+ 0.05246 7 8 ack 40 ------- 0 7.0 9.0 8 23
- 0.05246 7 8 ack 40 ------- 0 7.0 9.0 8 23
r 0.052773 9 0 tcp 1040 ------- 0 9.0 7.0 9 15
h 0.052773 0 8 tcp 1040 ------- 0 9.0 7.0 9 15
r 0.053515 8 0 ack 40 ------- 0 7.0 9.0 8 23
+ 0.053515 0 9 ack 40 ------- 0 7.0 9.0 8 23
- 0.053515 0 9 ack 40 ------- 0 7.0 9.0 8 23
+ 0.053773 0 8 tcp 1040 ------- 0 9.0 7.0 9 15
- 0.053773 0 8 tcp 1040 ------- 0 9.0 7.0 9 15
- 0.054933 9 0 tcp 1040 ------- 0 9.0 7.0 11 18
r 0.05562 8 7 tcp 1040 ------- 0 9.0 7.0 9 15
h 0.05562 7 8 ack 40 ------- 0 7.0 9.0 9 26
r 0.055675 0 9 ack 40 ------- 0 7.0 9.0 8 23
+ 0.055675 9 0 tcp 1040 ------- 0 9.0 7.0 17 27
+ 0.055675 9 0 tcp 1040 ------- 0 9.0 7.0 18 28
+ 0.05662 7 8 ack 40 ------- 0 7.0 9.0 9 26
- 0.05662 7 8 ack 40 ------- 0 7.0 9.0 9 26
r 0.056933 9 0 tcp 1040 ------- 0 9.0 7.0 10 16
h 0.056933 0 8 tcp 1040 ------- 0 9.0 7.0 10 16
r 0.057675 8 0 ack 40 ------- 0 7.0 9.0 9 26
+ 0.057675 0 9 ack 40 ------- 0 7.0 9.0 9 26
- 0.057675 0 9 ack 40 ------- 0 7.0 9.0 9 26
+ 0.057933 0 8 tcp 1040 ------- 0 9.0 7.0 10 16
- 0.057933 0 8 tcp 1040 ------- 0 9.0 7.0 10 16
- 0.059093 9 0 tcp 1040 ------- 0 9.0 7.0 12 19
r 0.05978 8 7 tcp 1040 ------- 0 9.0 7.0 10 16
h 0.05978 7 8 ack 40 ------- 0 7.0 9.0 10 29
r 0.059835 0 9 ack 40 ------- 0 7.0 9.0 9 26
+ 0.059835 9 0 tcp 1040 ------- 0 9.0 7.0 19 30
+ 0.059835 9 0 tcp 1040 ------- 0 9.0 7.0 20 31
+ 0.06078 7 8 ack 40 ------- 0 7.0 9.0 10 29
- 0.06078 7 8 ack 40 ------- 0 7.0 9.0 10 29
r 0.061093 9 0 tcp 1040 ------- 0 9.0 7.0 11 18
h 0.061093 0 8 tcp 1040 ------- 0 9.0 7.0 11 18
r 0.061835 8 0 ack 40 ------- 0 7.0 9.0 10 29
+ 0.061835 0 9 ack 40 ------- 0 7.0 9.0 10 29
- 0.061835 0 9 ack 40 ------- 0 7.0 9.0 10 29
+ 0.062093 0 8 tcp 1040 ------- 0 9.0 7.0 11 18
- 0.062093 0 8 tcp 1040 ------- 0 9.0 7.0 11 18
- 0.063253 9 0 tcp 1040 ------- 0 9.0 7.0 13 21
r 0.06394 8 7 tcp 1040 ------- 0 9.0 7.0 11 18
h 0.06394 7 8 ack 40 ------- 0 7.0 9.0 11 32
r 0.063995 0 9 ack 40 ------- 0 7.0 9.0 10 29
+ 0.063995 9 0 tcp 1040 ------- 0 9.0 7.0 21 33
+ 0.063995 9 0 tcp 1040 ------- 0 9.0 7.0 22 34
+ 0.06494 7 8 ack 40 ------- 0 7.0 9.0 11 32
- 0.06494 7 8 ack 40 ------- 0 7.0 9.0 11 32
r 0.065253 9 0 tcp 1040 ------- 0 9.0 7.0 12 19
h 0.065253 0 8 tcp 1040 ------- 0 9.0 7.0 12 19
r 0.065995 8 0 ack 40 ------- 0 7.0 9.0 11 32
+ 0.065995 0 9 ack 40 ------- 0 7.0 9.0 11 32
- 0.065995 0 9 ack 40 ------- 0 7.0 9.0 11 32
+ 0.066253 0 8 tcp 1040 ------- 0 9.0 7.0 12 19
- 0.066253 0 8 tcp 1040 ------- 0 9.0 7.0 12 19
- 0.067413 9 0 tcp 1040 ------- 0 9.0 7.0 14 22
r 0.0681 8 7 tcp 1040 ------- 0 9.0 7.0 12 19
h 0.0681 7 8 ack 40 ------- 0 7.0 9.0 12 35
r 0.068155 0 9 ack 40 ------- 0 7.0 9.0 11 32
+ 0.068155 9 0 tcp 1040 ------- 0 9.0 7.0 23 36
+ 0.068155 9 0 tcp 1040 ------- 0 9.0 7.0 24 37
+ 0.0691 7 8 ack 40 ------- 0 7.0 9.0 12 35
- 0.0691 7 8 ack 40 ------- 0 7.0 9.0 12 35
r 0.069413 9 0 tcp 1040 ------- 0 9.0 7.0 13 21
h 0.069413 0 8 tcp 1040 ------- 0 9.0 7.0 13 21
r 0.070155 8 0 ack 40 ------- 0 7.0 9.0 12 35
+ 0.070155 0 9 ack 40 ------- 0 7.0 9.0 12 35
- 0.070155 0 9 ack 40 ------- 0 7.0 9.0 12 35
+ 0.070413 0 8 tcp 1040 ------- 0 9.0 7.0 13 21
- 0.070413 0 8 tcp 1040 ------- 0 9.0 7.0 13 21
- 0.071573 9 0 tcp 1040 ------- 0 9.0 7.0 15 24
r 0.07226 8 7 tcp 1040 ------- 0 9.0 7.0 13 21
h 0.07226 7 8 ack 40 ------- 0 7.0 9.0 13 38
r 0.072315 0 9 ack 40 ------- 0 7.0 9.0 12 35
+ 0.072315 9 0 tcp 1040 ------- 0 9.0 7.0 25 39
+ 0.072315 9 0 tcp 1040 ------- 0 9.0 7.0 26 40
+ 0.07326 7 8 ack 40 ------- 0 7.0 9.0 13 38
- 0.07326 7 8 ack 40 ------- 0 7.0 9.0 13 38
r 0.073573 9 0 tcp 1040 ------- 0 9.0 7.0 14 22
h 0.073573 0 8 tcp 1040 ------- 0 9.0 7.0 14 22
r 0.074315 8 0 ack 40 ------- 0 7.0 9.0 13 38
+ 0.074315 0 9 ack 40 ------- 0 7.0 9.0 13 38
- 0.074315 0 9 ack 40 ------- 0 7.0 9.0 13 38
+ 0.074573 0 8 tcp 1040 ------- 0 9.0 7.0 14 22
- 0.074573 0 8 tcp 1040 ------- 0 9.0 7.0 14 22
- 0.075733 9 0 tcp 1040 ------- 0 9.0 7.0 16 25
r 0.07642 8 7 tcp 1040 ------- 0 9.0 7.0 14 22
h 0.07642 7 8 ack 40 ------- 0 7.0 9.0 14 41
r 0.076475 0 9 ack 40 ------- 0 7.0 9.0 13 38
+ 0.076475 9 0 tcp 1040 ------- 0 9.0 7.0 27 42
+ 0.076475 9 0 tcp 1040 ------- 0 9.0 7.0 28 43
+ 0.07742 7 8 ack 40 ------- 0 7.0 9.0 14 41
- 0.07742 7 8 ack 40 ------- 0 7.0 9.0 14 41
r 0.077733 9 0 tcp 1040 ------- 0 9.0 7.0 15 24
h 0.077733 0 8 tcp 1040 ------- 0 9.0 7.0 15 24
r 0.078475 8 0 ack 40 ------- 0 7.0 9.0 14 41
+ 0.078475 0 9 ack 40 ------- 0 7.0 9.0 14 41
- 0.078475 0 9 ack 40 ------- 0 7.0 9.0 14 41
+ 0.078733 0 8 tcp 1040 ------- 0 9.0 7.0 15 24
- 0.078733 0 8 tcp 1040 ------- 0 9.0 7.0 15 24
- 0.079893 9 0 tcp 1040 ------- 0 9.0 7.0 17 27
r 0.08058 8 7 tcp 1040 ------- 0 9.0 7.0 15 24
h 0.08058 7 8 ack 40 ------- 0 7.0 9.0 15 44
r 0.080635 0 9 ack 40 ------- 0 7.0 9.0 14 41
+ 0.080635 9 0 tcp 1040 ------- 0 9.0 7.0 29 45
+ 0.08158 7 8 ack 40 ------- 0 7.0 9.0 15 44
- 0.08158 7 8 ack 40 ------- 0 7.0 9.0 15 44
r 0.081893 9 0 tcp 1040 ------- 0 9.0 7.0 16 25
h 0.081893 0 8 tcp 1040 ------- 0 9.0 7.0 16 25
r 0.082635 8 0 ack 40 ------- 0 7.0 9.0 15 44
+ 0.082635 0 9 ack 40 ------- 0 7.0 9.0 15 44
- 0.082635 0 9 ack 40 ------- 0 7.0 9.0 15 44
+ 0.082893 0 8 tcp 1040 ------- 0 9.0 7.0 16 25
- 0.082893 0 8 tcp 1040 ------- 0 9.0 7.0 16 25
- 0.084053 9 0 tcp 1040 ------- 0 9.0 7.0 18 28
r 0.08474 8 7 tcp 1040 ------- 0 9.0 7.0 16 25
h 0.08474 7 8 ack 40 ------- 0 7.0 9.0 16 46
r 0.084795 0 9 ack 40 ------- 0 7.0 9.0 15 44
+ 0.084795 9 0 tcp 1040 ------- 0 9.0 7.0 30 47
+ 0.08574 7 8 ack 40 ------- 0 7.0 9.0 16 46
- 0.08574 7 8 ack 40 ------- 0 7.0 9.0 16 46
r 0.086053 9 0 tcp 1040 ------- 0 9.0 7.0 17 27
h 0.086053 0 8 tcp 1040 ------- 0 9.0 7.0 17 27
r 0.086795 8 0 ack 40 ------- 0 7.0 9.0 16 46
+ 0.086795 0 9 ack 40 ------- 0 7.0 9.0 16 46
- 0.086795 0 9 ack 40 ------- 0 7.0 9.0 16 46
+ 0.087053 0 8 tcp 1040 ------- 0 9.0 7.0 17 27
- 0.087053 0 8 tcp 1040 ------- 0 9.0 7.0 17 27
- 0.088213 9 0 tcp 1040 ------- 0 9.0 7.0 19 30
r 0.0889 8 7 tcp 1040 ------- 0 9.0 7.0 17 27
h 0.0889 7 8 ack 40 ------- 0 7.0 9.0 17 48
r 0.088955 0 9 ack 40 ------- 0 7.0 9.0 16 46
+ 0.088955 9 0 tcp 1040 ------- 0 9.0 7.0 31 49
+ 0.0899 7 8 ack 40 ------- 0 7.0 9.0 17 48
- 0.0899 7 8 ack 40 ------- 0 7.0 9.0 17 48
r 0.090213 9 0 tcp 1040 ------- 0 9.0 7.0 18 28
h 0.090213 0 8 tcp 1040 ------- 0 9.0 7.0 18 28
r 0.090955 8 0 ack 40 ------- 0 7.0 9.0 17 48
+ 0.090955 0 9 ack 40 ------- 0 7.0 9.0 17 48
- 0.090955 0 9 ack 40 ------- 0 7.0 9.0 17 48
+ 0.091213 0 8 tcp 1040 ------- 0 9.0 7.0 18 28
- 0.091213 0 8 tcp 1040 ------- 0 9.0 7.0 18 28
- 0.092373 9 0 tcp 1040 ------- 0 9.0 7.0 20 31
r 0.09306 8 7 tcp 1040 ------- 0 9.0 7.0 18 28
h 0.09306 7 8 ack 40 ------- 0 7.0 9.0 18 50
r 0.093115 0 9 ack 40 ------- 0 7.0 9.0 17 48
+ 0.093115 9 0 tcp 1040 ------- 0 9.0 7.0 32 51
+ 0.09406 7 8 ack 40 ------- 0 7.0 9.0 18 50
- 0.09406 7 8 ack 40 ------- 0 7.0 9.0 18 50
r 0.094373 9 0 tcp 1040 ------- 0 9.0 7.0 19 30
h 0.094373 0 8 tcp 1040 ------- 0 9.0 7.0 19 30
r 0.095115 8 0 ack 40 ------- 0 7.0 9.0 18 50
+ 0.095115 0 9 ack 40 ------- 0 7.0 9.0 18 50
- 0.095115 0 9 ack 40 ------- 0 7.0 9.0 18 50
+ 0.095373 0 8 tcp 1040 ------- 0 9.0 7.0 19 30
- 0.095373 0 8 tcp 1040 ------- 0 9.0 7.0 19 30
- 0.096533 9 0 tcp 1040 ------- 0 9.0 7.0 21 33
r 0.09722 8 7 tcp 1040 ------- 0 9.0 7.0 19 30
h 0.09722 7 8 ack 40 ------- 0 7.0 9.0 19 52
r 0.097275 0 9 ack 40 ------- 0 7.0 9.0 18 50
+ 0.097275 9 0 tcp 1040 ------- 0 9.0 7.0 33 53
+ 0.09822 7 8 ack 40 ------- 0 7.0 9.0 19 52
- 0.09822 7 8 ack 40 ------- 0 7.0 9.0 19 52
r 0.098533 9 0 tcp 1040 ------- 0 9.0 7.0 20 31
h 0.098533 0 8 tcp 1040 ------- 0 9.0 7.0 20 31
r 0.099275 8 0 ack 40 ------- 0 7.0 9.0 19 52
+ 0.099275 0 9 ack 40 ------- 0 7.0 9.0 19 52
- 0.099275 0 9 ack 40 ------- 0 7.0 9.0 19 52
+ 0.099533 0 8 tcp 1040 ------- 0 9.0 7.0 20 31
- 0.099533 0 8 tcp 1040 ------- 0 9.0 7.0 20 31
- 0.100693 9 0 tcp 1040 ------- 0 9.0 7.0 22 34
r 0.10138 8 7 tcp 1040 ------- 0 9.0 7.0 20 31
h 0.10138 7 8 ack 40 ------- 0 7.0 9.0 20 54
r 0.101435 0 9 ack 40 ------- 0 7.0 9.0 19 52
+ 0.101435 9 0 tcp 1040 ------- 0 9.0 7.0 34 55
+ 0.10238 7 8 ack 40 ------- 0 7.0 9.0 20 54
- 0.10238 7 8 ack 40 ------- 0 7.0 9.0 20 54
r 0.102693 9 0 tcp 1040 ------- 0 9.0 7.0 21 33
h 0.102693 0 8 tcp 1040 ------- 0 9.0 7.0 21 33
r 0.103435 8 0 ack 40 ------- 0 7.0 9.0 20 54
+ 0.103435 0 9 ack 40 ------- 0 7.0 9.0 20 54
- 0.103435 0 9 ack 40 ------- 0 7.0 9.0 20 54
+ 0.103693 0 8 tcp 1040 ------- 0 9.0 7.0 21 33
- 0.103693 0 8 tcp 1040 ------- 0 9.0 7.0 21 33
- 0.104853 9 0 tcp 1040 ------- 0 9.0 7.0 23 36
r 0.10554 8 7 tcp 1040 ------- 0 9.0 7.0 21 33
h 0.10554 7 8 ack 40 ------- 0 7.0 9.0 21 56
r 0.105595 0 9 ack 40 ------- 0 7.0 9.0 20 54
+ 0.105595 9 0 tcp 1040 ------- 0 9.0 7.0 35 57
+ 0.10654 7 8 ack 40 ------- 0 7.0 9.0 21 56
- 0.10654 7 8 ack 40 ------- 0 7.0 9.0 21 56
r 0.106853 9 0 tcp 1040 ------- 0 9.0 7.0 22 34
h 0.106853 0 8 tcp 1040 ------- 0 9.0 7.0 22 34
r 0.107595 8 0 ack 40 ------- 0 7.0 9.0 21 56
+ 0.107595 0 9 ack 40 ------- 0 7.0 9.0 21 56
- 0.107595 0 9 ack 40 ------- 0 7.0 9.0 21 56
+ 0.107853 0 8 tcp 1040 ------- 0 9.0 7.0 22 34
- 0.107853 0 8 tcp 1040 ------- 0 9.0 7.0 22 34
- 0.109013 9 0 tcp 1040 ------- 0 9.0 7.0 24 37
r 0.1097 8 7 tcp 1040 ------- 0 9.0 7.0 22 34
h 0.1097 7 8 ack 40 ------- 0 7.0 9.0 22 58
r 0.109755 0 9 ack 40 ------- 0 7.0 9.0 21 56
+ 0.109755 9 0 tcp 1040 ------- 0 9.0 7.0 36 59
+ 0.1107 7 8 ack 40 ------- 0 7.0 9.0 22 58
- 0.1107 7 8 ack 40 ------- 0 7.0 9.0 22 58
r 0.111013 9 0 tcp 1040 ------- 0 9.0 7.0 23 36
h 0.111013 0 8 tcp 1040 ------- 0 9.0 7.0 23 36
r 0.111755 8 0 ack 40 ------- 0 7.0 9.0 22 58
+ 0.111755 0 9 ack 40 ------- 0 7.0 9.0 22 58
- 0.111755 0 9 ack 40 ------- 0 7.0 9.0 22 58
+ 0.112013 0 8 tcp 1040 ------- 0 9.0 7.0 23 36
- 0.112013 0 8 tcp 1040 ------- 0 9.0 7.0 23 36
- 0.113173 9 0 tcp 1040 ------- 0 9.0 7.0 25 39
r 0.11386 8 7 tcp 1040 ------- 0 9.0 7.0 23 36
h 0.11386 7 8 ack 40 ------- 0 7.0 9.0 23 60
r 0.113915 0 9 ack 40 ------- 0 7.0 9.0 22 58
+ 0.113915 9 0 tcp 1040 ------- 0 9.0 7.0 37 61
+ 0.11486 7 8 ack 40 ------- 0 7.0 9.0 23 60
- 0.11486 7 8 ack 40 ------- 0 7.0 9.0 23 60
r 0.115173 9 0 tcp 1040 ------- 0 9.0 7.0 24 37
h 0.115173 0 8 tcp 1040 ------- 0 9.0 7.0 24 37
r 0.115915 8 0 ack 40 ------- 0 7.0 9.0 23 60
+ 0.115915 0 9 ack 40 ------- 0 7.0 9.0 23 60
- 0.115915 0 9 ack 40 ------- 0 7.0 9.0 23 60
+ 0.116173 0 8 tcp 1040 ------- 0 9.0 7.0 24 37
- 0.116173 0 8 tcp 1040 ------- 0 9.0 7.0 24 37
- 0.117333 9 0 tcp 1040 ------- 0 9.0 7.0 26 40
r 0.11802 8 7 tcp 1040 ------- 0 9.0 7.0 24 37
h 0.11802 7 8 ack 40 ------- 0 7.0 9.0 24 62
r 0.118075 0 9 ack 40 ------- 0 7.0 9.0 23 60
+ 0.118075 9 0 tcp 1040 ------- 0 9.0 7.0 38 63
+ 0.11902 7 8 ack 40 ------- 0 7.0 9.0 24 62
- 0.11902 7 8 ack 40 ------- 0 7.0 9.0 24 62
r 0.119333 9 0 tcp 1040 ------- 0 9.0 7.0 25 39
h 0.119333 0 8 tcp 1040 ------- 0 9.0 7.0 25 39
r 0.120075 8 0 ack 40 ------- 0 7.0 9.0 24 62
+ 0.120075 0 9 ack 40 ------- 0 7.0 9.0 24 62
- 0.120075 0 9 ack 40 ------- 0 7.0 9.0 24 62
+ 0.120333 0 8 tcp 1040 ------- 0 9.0 7.0 25 39
- 0.120333 0 8 tcp 1040 ------- 0 9.0 7.0 25 39
- 0.121493 9 0 tcp 1040 ------- 0 9.0 7.0 27 42
r 0.12218 8 7 tcp 1040 ------- 0 9.0 7.0 25 39
h 0.12218 7 8 ack 40 ------- 0 7.0 9.0 25 64
r 0.122235 0 9 ack 40 ------- 0 7.0 9.0 24 62
+ 0.122235 9 0 tcp 1040 ------- 0 9.0 7.0 39 65
+ 0.12318 7 8 ack 40 ------- 0 7.0 9.0 25 64
- 0.12318 7 8 ack 40 ------- 0 7.0 9.0 25 64
r 0.123493 9 0 tcp 1040 ------- 0 9.0 7.0 26 40
h 0.123493 0 8 tcp 1040 ------- 0 9.0 7.0 26 40
r 0.124235 8 0 ack 40 ------- 0 7.0 9.0 25 64
+ 0.124235 0 9 ack 40 ------- 0 7.0 9.0 25 64
- 0.124235 0 9 ack 40 ------- 0 7.0 9.0 25 64
+ 0.124493 0 8 tcp 1040 ------- 0 9.0 7.0 26 40
- 0.124493 0 8 tcp 1040 ------- 0 9.0 7.0 26 40
- 0.125653 9 0 tcp 1040 ------- 0 9.0 7.0 28 43
r 0.12634 8 7 tcp 1040 ------- 0 9.0 7.0 26 40
h 0.12634 7 8 ack 40 ------- 0 7.0 9.0 26 66
r 0.126395 0 9 ack 40 ------- 0 7.0 9.0 25 64
+ 0.126395 9 0 tcp 1040 ------- 0 9.0 7.0 40 67
+ 0.12734 7 8 ack 40 ------- 0 7.0 9.0 26 66
- 0.12734 7 8 ack 40 ------- 0 7.0 9.0 26 66
r 0.127653 9 0 tcp 1040 ------- 0 9.0 7.0 27 42
h 0.127653 0 8 tcp 1040 ------- 0 9.0 7.0 27 42
r 0.128395 8 0 ack 40 ------- 0 7.0 9.0 26 66
+ 0.128395 0 9 ack 40 ------- 0 7.0 9.0 26 66
- 0.128395 0 9 ack 40 ------- 0 7.0 9.0 26 66
+ 0.128653 0 8 tcp 1040 ------- 0 9.0 7.0 27 42
- 0.128653 0 8 tcp 1040 ------- 0 9.0 7.0 27 42
- 0.129813 9 0 tcp 1040 ------- 0 9.0 7.0 29 45
r 0.1305 8 7 tcp 1040 ------- 0 9.0 7.0 27 42
h 0.1305 7 8 ack 40 ------- 0 7.0 9.0 27 68
r 0.130555 0 9 ack 40 ------- 0 7.0 9.0 26 66
+ 0.130555 9 0 tcp 1040 ------- 0 9.0 7.0 41 69
+ 0.1315 7 8 ack 40 ------- 0 7.0 9.0 27 68
- 0.1315 7 8 ack 40 ------- 0 7.0 9.0 27 68
r 0.131813 9 0 tcp 1040 ------- 0 9.0 7.0 28 43
h 0.131813 0 8 tcp 1040 ------- 0 9.0 7.0 28 43
r 0.132555 8 0 ack 40 ------- 0 7.0 9.0 27 68
+ 0.132555 0 9 ack 40 ------- 0 7.0 9.0 27 68
- 0.132555 0 9 ack 40 ------- 0 7.0 9.0 27 68
+ 0.132813 0 8 tcp 1040 ------- 0 9.0 7.0 28 43
- 0.132813 0 8 tcp 1040 ------- 0 9.0 7.0 28 43
- 0.133973 9 0 tcp 1040 ------- 0 9.0 7.0 30 47
r 0.13466 8 7 tcp 1040 ------- 0 9.0 7.0 28 43
h 0.13466 7 8 ack 40 ------- 0 7.0 9.0 28 70
r 0.134715 0 9 ack 40 ------- 0 7.0 9.0 27 68
+ 0.134715 9 0 tcp 1040 ------- 0 9.0 7.0 42 71
+ 0.13566 7 8 ack 40 ------- 0 7.0 9.0 28 70
- 0.13566 7 8 ack 40 ------- 0 7.0 9.0 28 70
r 0.135973 9 0 tcp 1040 ------- 0 9.0 7.0 29 45
h 0.135973 0 8 tcp 1040 ------- 0 9.0 7.0 29 45
r 0.136715 8 0 ack 40 ------- 0 7.0 9.0 28 70
+ 0.136715 0 9 ack 40 ------- 0 7.0 9.0 28 70
- 0.136715 0 9 ack 40 ------- 0 7.0 9.0 28 70
+ 0.136973 0 8 tcp 1040 ------- 0 9.0 7.0 29 45
- 0.136973 0 8 tcp 1040 ------- 0 9.0 7.0 29 45
- 0.138133 9 0 tcp 1040 ------- 0 9.0 7.0 31 49
r 0.13882 8 7 tcp 1040 ------- 0 9.0 7.0 29 45
h 0.13882 7 8 ack 40 ------- 0 7.0 9.0 29 72
r 0.138875 0 9 ack 40 ------- 0 7.0 9.0 28 70
+ 0.138875 9 0 tcp 1040 ------- 0 9.0 7.0 43 73
+ 0.13982 7 8 ack 40 ------- 0 7.0 9.0 29 72
- 0.13982 7 8 ack 40 ------- 0 7.0 9.0 29 72
r 0.140133 9 0 tcp 1040 ------- 0 9.0 7.0 30 47
h 0.140133 0 8 tcp 1040 ------- 0 9.0 7.0 30 47
r 0.140875 8 0 ack 40 ------- 0 7.0 9.0 29 72
+ 0.140875 0 9 ack 40 ------- 0 7.0 9.0 29 72
- 0.140875 0 9 ack 40 ------- 0 7.0 9.0 29 72
+ 0.141133 0 8 tcp 1040 ------- 0 9.0 7.0 30 47
- 0.141133 0 8 tcp 1040 ------- 0 9.0 7.0 30 47
- 0.142293 9 0 tcp 1040 ------- 0 9.0 7.0 32 51
r 0.14298 8 7 tcp 1040 ------- 0 9.0 7.0 30 47
h 0.14298 7 8 ack 40 ------- 0 7.0 9.0 30 74
r 0.143035 0 9 ack 40 ------- 0 7.0 9.0 29 72
+ 0.143035 9 0 tcp 1040 ------- 0 9.0 7.0 44 75
+ 0.14398 7 8 ack 40 ------- 0 7.0 9.0 30 74
- 0.14398 7 8 ack 40 ------- 0 7.0 9.0 30 74
r 0.144293 9 0 tcp 1040 ------- 0 9.0 7.0 31 49
h 0.144293 0 8 tcp 1040 ------- 0 9.0 7.0 31 49
r 0.145035 8 0 ack 40 ------- 0 7.0 9.0 30 74
+ 0.145035 0 9 ack 40 ------- 0 7.0 9.0 30 74
- 0.145035 0 9 ack 40 ------- 0 7.0 9.0 30 74
+ 0.145293 0 8 tcp 1040 ------- 0 9.0 7.0 31 49
- 0.145293 0 8 tcp 1040 ------- 0 9.0 7.0 31 49
- 0.146453 9 0 tcp 1040 ------- 0 9.0 7.0 33 53
r 0.14714 8 7 tcp 1040 ------- 0 9.0 7.0 31 49
h 0.14714 7 8 ack 40 ------- 0 7.0 9.0 31 76
r 0.147195 0 9 ack 40 ------- 0 7.0 9.0 30 74
+ 0.147195 9 0 tcp 1040 ------- 0 9.0 7.0 45 77
+ 0.14814 7 8 ack 40 ------- 0 7.0 9.0 31 76
- 0.14814 7 8 ack 40 ------- 0 7.0 9.0 31 76
r 0.148453 9 0 tcp 1040 ------- 0 9.0 7.0 32 51
h 0.148453 0 8 tcp 1040 ------- 0 9.0 7.0 32 51
r 0.149195 8 0 ack 40 ------- 0 7.0 9.0 31 76
+ 0.149195 0 9 ack 40 ------- 0 7.0 9.0 31 76
- 0.149195 0 9 ack 40 ------- 0 7.0 9.0 31 76
+ 0.149453 0 8 tcp 1040 ------- 0 9.0 7.0 32 51
- 0.149453 0 8 tcp 1040 ------- 0 9.0 7.0 32 51
- 0.150613 9 0 tcp 1040 ------- 0 9.0 7.0 34 55
r 0.1513 8 7 tcp 1040 ------- 0 9.0 7.0 32 51
h 0.1513 7 8 ack 40 ------- 0 7.0 9.0 32 78
r 0.151355 0 9 ack 40 ------- 0 7.0 9.0 31 76
+ 0.151355 9 0 tcp 1040 ------- 0 9.0 7.0 46 79
+ 0.1523 7 8 ack 40 ------- 0 7.0 9.0 32 78
- 0.1523 7 8 ack 40 ------- 0 7.0 9.0 32 78
r 0.152613 9 0 tcp 1040 ------- 0 9.0 7.0 33 53
h 0.152613 0 8 tcp 1040 ------- 0 9.0 7.0 33 53
r 0.153355 8 0 ack 40 ------- 0 7.0 9.0 32 78
+ 0.153355 0 9 ack 40 ------- 0 7.0 9.0 32 78
- 0.153355 0 9 ack 40 ------- 0 7.0 9.0 32 78
+ 0.153613 0 8 tcp 1040 ------- 0 9.0 7.0 33 53
- 0.153613 0 8 tcp 1040 ------- 0 9.0 7.0 33 53
- 0.154773 9 0 tcp 1040 ------- 0 9.0 7.0 35 57
r 0.15546 8 7 tcp 1040 ------- 0 9.0 7.0 33 53
h 0.15546 7 8 ack 40 ------- 0 7.0 9.0 33 80
r 0.155515 0 9 ack 40 ------- 0 7.0 9.0 32 78
+ 0.155515 9 0 tcp 1040 ------- 0 9.0 7.0 47 81
+ 0.15646 7 8 ack 40 ------- 0 7.0 9.0 33 80
- 0.15646 7 8 ack 40 ------- 0 7.0 9.0 33 80
r 0.156773 9 0 tcp 1040 ------- 0 9.0 7.0 34 55
h 0.156773 0 8 tcp 1040 ------- 0 9.0 7.0 34 55
r 0.157515 8 0 ack 40 ------- 0 7.0 9.0 33 80
+ 0.157515 0 9 ack 40 ------- 0 7.0 9.0 33 80
- 0.157515 0 9 ack 40 ------- 0 7.0 9.0 33 80
+ 0.157773 0 8 tcp 1040 ------- 0 9.0 7.0 34 55
- 0.157773 0 8 tcp 1040 ------- 0 9.0 7.0 34 55
- 0.158933 9 0 tcp 1040 ------- 0 9.0 7.0 36 59
r 0.15962 8 7 tcp 1040 ------- 0 9.0 7.0 34 55
h 0.15962 7 8 ack 40 ------- 0 7.0 9.0 34 82
r 0.159675 0 9 ack 40 ------- 0 7.0 9.0 33 80
+ 0.159675 9 0 tcp 1040 ------- 0 9.0 7.0 48 83
+ 0.16062 7 8 ack 40 ------- 0 7.0 9.0 34 82
- 0.16062 7 8 ack 40 ------- 0 7.0 9.0 34 82
r 0.160933 9 0 tcp 1040 ------- 0 9.0 7.0 35 57
h 0.160933 0 8 tcp 1040 ------- 0 9.0 7.0 35 57
r 0.161675 8 0 ack 40 ------- 0 7.0 9.0 34 82
+ 0.161675 0 9 ack 40 ------- 0 7.0 9.0 34 82
- 0.161675 0 9 ack 40 ------- 0 7.0 9.0 34 82
+ 0.161933 0 8 tcp 1040 ------- 0 9.0 7.0 35 57
- 0.161933 0 8 tcp 1040 ------- 0 9.0 7.0 35 57
- 0.163093 9 0 tcp 1040 ------- 0 9.0 7.0 37 61
r 0.16378 8 7 tcp 1040 ------- 0 9.0 7.0 35 57
h 0.16378 7 8 ack 40 ------- 0 7.0 9.0 35 84
r 0.163835 0 9 ack 40 ------- 0 7.0 9.0 34 82
+ 0.163835 9 0 tcp 1040 ------- 0 9.0 7.0 49 85
+ 0.16478 7 8 ack 40 ------- 0 7.0 9.0 35 84
- 0.16478 7 8 ack 40 ------- 0 7.0 9.0 35 84
r 0.165093 9 0 tcp 1040 ------- 0 9.0 7.0 36 59
h 0.165093 0 8 tcp 1040 ------- 0 9.0 7.0 36 59
r 0.165835 8 0 ack 40 ------- 0 7.0 9.0 35 84
+ 0.165835 0 9 ack 40 ------- 0 7.0 9.0 35 84
- 0.165835 0 9 ack 40 ------- 0 7.0 9.0 35 84
+ 0.166093 0 8 tcp 1040 ------- 0 9.0 7.0 36 59
- 0.166093 0 8 tcp 1040 ------- 0 9.0 7.0 36 59
- 0.167253 9 0 tcp 1040 ------- 0 9.0 7.0 38 63
r 0.16794 8 7 tcp 1040 ------- 0 9.0 7.0 36 59
h 0.16794 7 8 ack 40 ------- 0 7.0 9.0 36 86
r 0.167995 0 9 ack 40 ------- 0 7.0 9.0 35 84
+ 0.167995 9 0 tcp 1040 ------- 0 9.0 7.0 50 87
+ 0.16894 7 8 ack 40 ------- 0 7.0 9.0 36 86
- 0.16894 7 8 ack 40 ------- 0 7.0 9.0 36 86
r 0.169253 9 0 tcp 1040 ------- 0 9.0 7.0 37 61
h 0.169253 0 8 tcp 1040 ------- 0 9.0 7.0 37 61
r 0.169995 8 0 ack 40 ------- 0 7.0 9.0 36 86
+ 0.169995 0 9 ack 40 ------- 0 7.0 9.0 36 86
- 0.169995 0 9 ack 40 ------- 0 7.0 9.0 36 86
+ 0.170253 0 8 tcp 1040 ------- 0 9.0 7.0 37 61
- 0.170253 0 8 tcp 1040 ------- 0 9.0 7.0 37 61
- 0.171413 9 0 tcp 1040 ------- 0 9.0 7.0 39 65
r 0.1721 8 7 tcp 1040 ------- 0 9.0 7.0 37 61
h 0.1721 7 8 ack 40 ------- 0 7.0 9.0 37 88
r 0.172155 0 9 ack 40 ------- 0 7.0 9.0 36 86
+ 0.172155 9 0 tcp 1040 ------- 0 9.0 7.0 51 89
+ 0.1731 7 8 ack 40 ------- 0 7.0 9.0 37 88
- 0.1731 7 8 ack 40 ------- 0 7.0 9.0 37 88
r 0.173413 9 0 tcp 1040 ------- 0 9.0 7.0 38 63
h 0.173413 0 8 tcp 1040 ------- 0 9.0 7.0 38 63
r 0.174155 8 0 ack 40 ------- 0 7.0 9.0 37 88
+ 0.174155 0 9 ack 40 ------- 0 7.0 9.0 37 88
- 0.174155 0 9 ack 40 ------- 0 7.0 9.0 37 88
+ 0.174413 0 8 tcp 1040 ------- 0 9.0 7.0 38 63
- 0.174413 0 8 tcp 1040 ------- 0 9.0 7.0 38 63
- 0.175573 9 0 tcp 1040 ------- 0 9.0 7.0 40 67
r 0.17626 8 7 tcp 1040 ------- 0 9.0 7.0 38 63
h 0.17626 7 8 ack 40 ------- 0 7.0 9.0 38 90
r 0.176315 0 9 ack 40 ------- 0 7.0 9.0 37 88
+ 0.176315 9 0 tcp 1040 ------- 0 9.0 7.0 52 91
+ 0.17726 7 8 ack 40 ------- 0 7.0 9.0 38 90
- 0.17726 7 8 ack 40 ------- 0 7.0 9.0 38 90
r 0.177573 9 0 tcp 1040 ------- 0 9.0 7.0 39 65
h 0.177573 0 8 tcp 1040 ------- 0 9.0 7.0 39 65
r 0.178315 8 0 ack 40 ------- 0 7.0 9.0 38 90
+ 0.178315 0 9 ack 40 ------- 0 7.0 9.0 38 90
- 0.178315 0 9 ack 40 ------- 0 7.0 9.0 38 90
+ 0.178573 0 8 tcp 1040 ------- 0 9.0 7.0 39 65
- 0.178573 0 8 tcp 1040 ------- 0 9.0 7.0 39 65
- 0.179733 9 0 tcp 1040 ------- 0 9.0 7.0 41 69
r 0.18042 8 7 tcp 1040 ------- 0 9.0 7.0 39 65
h 0.18042 7 8 ack 40 ------- 0 7.0 9.0 39 92
r 0.180475 0 9 ack 40 ------- 0 7.0 9.0 38 90
+ 0.180475 9 0 tcp 1040 ------- 0 9.0 7.0 53 93
+ 0.18142 7 8 ack 40 ------- 0 7.0 9.0 39 92
- 0.18142 7 8 ack 40 ------- 0 7.0 9.0 39 92
r 0.181733 9 0 tcp 1040 ------- 0 9.0 7.0 40 67
h 0.181733 0 8 tcp 1040 ------- 0 9.0 7.0 40 67
r 0.182475 8 0 ack 40 ------- 0 7.0 9.0 39 92
+ 0.182475 0 9 ack 40 ------- 0 7.0 9.0 39 92
- 0.182475 0 9 ack 40 ------- 0 7.0 9.0 39 92
+ 0.182733 0 8 tcp 1040 ------- 0 9.0 7.0 40 67
- 0.182733 0 8 tcp 1040 ------- 0 9.0 7.0 40 67
- 0.183893 9 0 tcp 1040 ------- 0 9.0 7.0 42 71
r 0.18458 8 7 tcp 1040 ------- 0 9.0 7.0 40 67
h 0.18458 7 8 ack 40 ------- 0 7.0 9.0 40 94
r 0.184635 0 9 ack 40 ------- 0 7.0 9.0 39 92
+ 0.184635 9 0 tcp 1040 ------- 0 9.0 7.0 54 95
+ 0.18558 7 8 ack 40 ------- 0 7.0 9.0 40 94
- 0.18558 7 8 ack 40 ------- 0 7.0 9.0 40 94
r 0.185893 9 0 tcp 1040 ------- 0 9.0 7.0 41 69
h 0.185893 0 8 tcp 1040 ------- 0 9.0 7.0 41 69
r 0.186635 8 0 ack 40 ------- 0 7.0 9.0 40 94
+ 0.186635 0 9 ack 40 ------- 0 7.0 9.0 40 94
- 0.186635 0 9 ack 40 ------- 0 7.0 9.0 40 94
+ 0.186893 0 8 tcp 1040 ------- 0 9.0 7.0 41 69
- 0.186893 0 8 tcp 1040 ------- 0 9.0 7.0 41 69
- 0.188053 9 0 tcp 1040 ------- 0 9.0 7.0 43 73
r 0.18874 8 7 tcp 1040 ------- 0 9.0 7.0 41 69
h 0.18874 7 8 ack 40 ------- 0 7.0 9.0 41 96
r 0.188795 0 9 ack 40 ------- 0 7.0 9.0 40 94
+ 0.188795 9 0 tcp 1040 ------- 0 9.0 7.0 55 97
+ 0.18974 7 8 ack 40 ------- 0 7.0 9.0 41 96
- 0.18974 7 8 ack 40 ------- 0 7.0 9.0 41 96
r 0.190053 9 0 tcp 1040 ------- 0 9.0 7.0 42 71
h 0.190053 0 8 tcp 1040 ------- 0 9.0 7.0 42 71
r 0.190795 8 0 ack 40 ------- 0 7.0 9.0 41 96
+ 0.190795 0 9 ack 40 ------- 0 7.0 9.0 41 96
- 0.190795 0 9 ack 40 ------- 0 7.0 9.0 41 96
+ 0.191053 0 8 tcp 1040 ------- 0 9.0 7.0 42 71
- 0.191053 0 8 tcp 1040 ------- 0 9.0 7.0 42 71
- 0.192213 9 0 tcp 1040 ------- 0 9.0 7.0 44 75
r 0.1929 8 7 tcp 1040 ------- 0 9.0 7.0 42 71
h 0.1929 7 8 ack 40 ------- 0 7.0 9.0 42 98
r 0.192955 0 9 ack 40 ------- 0 7.0 9.0 41 96
+ 0.192955 9 0 tcp 1040 ------- 0 9.0 7.0 56 99
+ 0.1939 7 8 ack 40 ------- 0 7.0 9.0 42 98
- 0.1939 7 8 ack 40 ------- 0 7.0 9.0 42 98
r 0.194213 9 0 tcp 1040 ------- 0 9.0 7.0 43 73
h 0.194213 0 8 tcp 1040 ------- 0 9.0 7.0 43 73
r 0.194955 8 0 ack 40 ------- 0 7.0 9.0 42 98
+ 0.194955 0 9 ack 40 ------- 0 7.0 9.0 42 98
- 0.194955 0 9 ack 40 ------- 0 7.0 9.0 42 98
+ 0.195213 0 8 tcp 1040 ------- 0 9.0 7.0 43 73
- 0.195213 0 8 tcp 1040 ------- 0 9.0 7.0 43 73
- 0.196373 9 0 tcp 1040 ------- 0 9.0 7.0 45 77
r 0.19706 8 7 tcp 1040 ------- 0 9.0 7.0 43 73
h 0.19706 7 8 ack 40 ------- 0 7.0 9.0 43 100
r 0.197115 0 9 ack 40 ------- 0 7.0 9.0 42 98
+ 0.197115 9 0 tcp 1040 ------- 0 9.0 7.0 57 101
+ 0.19806 7 8 ack 40 ------- 0 7.0 9.0 43 100
- 0.19806 7 8 ack 40 ------- 0 7.0 9.0 43 100
r 0.198373 9 0 tcp 1040 ------- 0 9.0 7.0 44 75
h 0.198373 0 8 tcp 1040 ------- 0 9.0 7.0 44 75
r 0.199115 8 0 ack 40 ------- 0 7.0 9.0 43 100
+ 0.199115 0 9 ack 40 ------- 0 7.0 9.0 43 100
- 0.199115 0 9 ack 40 ------- 0 7.0 9.0 43 100
+ 0.199373 0 8 tcp 1040 ------- 0 9.0 7.0 44 75
- 0.199373 0 8 tcp 1040 ------- 0 9.0 7.0 44 75
- 0.200533 9 0 tcp 1040 ------- 0 9.0 7.0 46 79
r 0.20122 8 7 tcp 1040 ------- 0 9.0 7.0 44 75
h 0.20122 7 8 ack 40 ------- 0 7.0 9.0 44 102
r 0.201275 0 9 ack 40 ------- 0 7.0 9.0 43 100
+ 0.201275 9 0 tcp 1040 ------- 0 9.0 7.0 58 103
+ 0.20222 7 8 ack 40 ------- 0 7.0 9.0 44 102
- 0.20222 7 8 ack 40 ------- 0 7.0 9.0 44 102
r 0.202533 9 0 tcp 1040 ------- 0 9.0 7.0 45 77
h 0.202533 0 8 tcp 1040 ------- 0 9.0 7.0 45 77
r 0.203275 8 0 ack 40 ------- 0 7.0 9.0 44 102
+ 0.203275 0 9 ack 40 ------- 0 7.0 9.0 44 102
- 0.203275 0 9 ack 40 ------- 0 7.0 9.0 44 102